CHNH3PbI3 tetr                          
           1
    24.745899    0.000000    0.000000
     0.000000   24.745907    0.000000
     0.000000    0.000000   25.496000
   C    H    I    N    Pb
  64 384 192  64  64
Direct configuration=    10
   0.12455140  0.14297625  0.11949144
   0.12455140  0.14297625  0.61949147
   0.12455140  0.64297624  0.11949144
   0.12455140  0.64297624  0.61949147
   0.62455142  0.14297625  0.11949144
   0.62455142  0.14297625  0.61949147
   0.62455142  0.64297624  0.11949144
   0.62455142  0.64297624  0.61949147
   0.37455142  0.39297624  0.11949144
   0.37455142  0.39297624  0.61949147
   0.37455142  0.89297624  0.11949144
   0.37455142  0.89297624  0.61949147
   0.87455142  0.39297624  0.11949144
   0.87455142  0.39297624  0.61949147
   0.87455142  0.89297624  0.11949144
   0.87455142  0.89297624  0.61949147
   0.13590141  0.40468043  0.12641040
   0.13590141  0.40468043  0.62641042
   0.13590141  0.90468046  0.12641040
   0.13590141  0.90468046  0.62641042
   0.63590143  0.40468043  0.12641040
   0.63590143  0.40468043  0.62641042
   0.63590143  0.90468046  0.12641040
   0.63590143  0.90468046  0.62641042
   0.38590143  0.15468046  0.12641040
   0.38590143  0.15468046  0.62641042
   0.38590143  0.65468046  0.12641040
   0.38590143  0.65468046  0.62641042
   0.88590143  0.15468046  0.12641040
   0.88590143  0.15468046  0.62641042
   0.88590143  0.65468046  0.12641040
   0.88590143  0.65468046  0.62641042
   0.11958079  0.11760221  0.39443201
   0.11958079  0.11760221  0.89443201
   0.11958079  0.61760222  0.39443201
   0.11958079  0.61760222  0.89443201
   0.61958077  0.11760221  0.39443201
   0.61958077  0.11760221  0.89443201
   0.61958077  0.61760222  0.39443201
   0.61958077  0.61760222  0.89443201
   0.36958077  0.36760222  0.39443201
   0.36958077  0.36760222  0.89443201
   0.36958077  0.86760222  0.39443201
   0.36958077  0.86760222  0.89443201
   0.86958077  0.36760222  0.39443201
   0.86958077  0.36760222  0.89443201
   0.86958077  0.86760222  0.39443201
   0.86958077  0.86760222  0.89443201
   0.11237422  0.34840779  0.37640618
   0.11237422  0.34840779  0.87640615
   0.11237422  0.84840779  0.37640618
   0.11237422  0.84840779  0.87640615
   0.61237425  0.34840779  0.37640618
   0.61237425  0.34840779  0.87640615
   0.61237425  0.84840779  0.37640618
   0.61237425  0.84840779  0.87640615
   0.36237422  0.09840778  0.37640618
   0.36237422  0.09840778  0.87640615
   0.36237422  0.59840779  0.37640618
   0.36237422  0.59840779  0.87640615
   0.86237425  0.09840778  0.37640618
   0.86237425  0.09840778  0.87640615
   0.86237425  0.59840779  0.37640618
   0.86237425  0.59840779  0.87640615
   0.36117689  0.19103009  0.12124603
   0.36117689  0.19103009  0.62124601
   0.36117689  0.69103009  0.12124603
   0.36117689  0.69103009  0.62124601
   0.86117686  0.19103009  0.12124603
   0.86117686  0.19103009  0.62124601
   0.86117686  0.69103009  0.12124603
   0.86117686  0.69103009  0.62124601
   0.11117686  0.44103009  0.12124603
   0.11117686  0.44103009  0.62124601
   0.11117686  0.94103009  0.12124603
   0.11117686  0.94103009  0.62124601
   0.61117686  0.44103009  0.12124603
   0.61117686  0.44103009  0.62124601
   0.61117686  0.94103009  0.12124603
   0.61117686  0.94103009  0.62124601
   0.17132936  0.40679840  0.10072974
   0.17132936  0.40679840  0.60072976
   0.17132936  0.90679843  0.10072974
   0.17132936  0.90679843  0.60072976
   0.67132933  0.40679840  0.10072974
   0.67132933  0.40679840  0.60072976
   0.67132933  0.90679843  0.10072974
   0.67132933  0.90679843  0.60072976
   0.42132936  0.15679843  0.10072974
   0.42132936  0.15679843  0.60072976
   0.42132936  0.65679843  0.10072974
   0.42132936  0.65679843  0.60072976
   0.92132933  0.15679843  0.10072974
   0.92132933  0.15679843  0.60072976
   0.92132933  0.65679843  0.10072974
   0.92132933  0.65679843  0.60072976
   0.14909453  0.40005733  0.16720963
   0.14909453  0.40005733  0.66720964
   0.14909453  0.90005736  0.16720963
   0.14909453  0.90005736  0.66720964
   0.64909454  0.40005733  0.16720963
   0.64909454  0.40005733  0.66720964
   0.64909454  0.90005736  0.16720963
   0.64909454  0.90005736  0.66720964
   0.39909454  0.15005736  0.16720963
   0.39909454  0.15005736  0.66720964
   0.39909454  0.65005736  0.16720963
   0.39909454  0.65005736  0.66720964
   0.89909454  0.15005736  0.16720963
   0.89909454  0.15005736  0.66720964
   0.89909454  0.65005736  0.16720963
   0.89909454  0.65005736  0.66720964
   0.32196345  0.10050910  0.13643233
   0.32196345  0.10050910  0.63643233
   0.32196345  0.60050907  0.13643233
   0.32196345  0.60050907  0.63643233
   0.82196345  0.10050910  0.13643233
   0.82196345  0.10050910  0.63643233
   0.82196345  0.60050907  0.13643233
   0.82196345  0.60050907  0.63643233
   0.07196346  0.35050910  0.13643233
   0.07196346  0.35050910  0.63643233
   0.07196346  0.85050907  0.13643233
   0.07196346  0.85050907  0.63643233
   0.57196345  0.35050910  0.13643233
   0.57196345  0.35050910  0.63643233
   0.57196345  0.85050907  0.13643233
   0.57196345  0.85050907  0.63643233
   0.37967103  0.07222109  0.11388779
   0.37967103  0.07222109  0.61388780
   0.37967103  0.57222109  0.11388779
   0.37967103  0.57222109  0.61388780
   0.87967103  0.07222109  0.11388779
   0.87967103  0.07222109  0.61388780
   0.87967103  0.57222109  0.11388779
   0.87967103  0.57222109  0.61388780
   0.12967104  0.32222109  0.11388779
   0.12967104  0.32222109  0.61388780
   0.12967104  0.82222109  0.11388779
   0.12967104  0.82222109  0.61388780
   0.62967103  0.32222109  0.11388779
   0.62967103  0.32222109  0.61388780
   0.62967103  0.82222109  0.11388779
   0.62967103  0.82222109  0.61388780
   0.34063004  0.10757730  0.07389805
   0.34063004  0.10757730  0.57389803
   0.34063004  0.60757730  0.07389805
   0.34063004  0.60757730  0.57389803
   0.84063004  0.10757730  0.07389805
   0.84063004  0.10757730  0.57389803
   0.84063004  0.60757730  0.07389805
   0.84063004  0.60757730  0.57389803
   0.09063004  0.35757730  0.07389805
   0.09063004  0.35757730  0.57389803
   0.09063004  0.85757730  0.07389805
   0.09063004  0.85757730  0.57389803
   0.59063004  0.35757730  0.07389805
   0.59063004  0.35757730  0.57389803
   0.59063004  0.85757730  0.07389805
   0.59063004  0.85757730  0.57389803
   0.44963154  0.35434224  0.13157965
   0.44963154  0.35434224  0.63157964
   0.44963154  0.85434224  0.13157965
   0.44963154  0.85434224  0.63157964
   0.94963154  0.35434224  0.13157965
   0.94963154  0.35434224  0.63157964
   0.94963154  0.85434224  0.13157965
   0.94963154  0.85434224  0.63157964
   0.19963154  0.10434224  0.13157965
   0.19963154  0.10434224  0.63157964
   0.19963154  0.60434224  0.13157965
   0.19963154  0.60434224  0.63157964
   0.69963154  0.10434224  0.13157965
   0.69963154  0.10434224  0.63157964
   0.69963154  0.60434224  0.13157965
   0.69963154  0.60434224  0.63157964
   0.41108248  0.35806560  0.18584893
   0.41108248  0.35806560  0.68584891
   0.41108248  0.85806560  0.18584893
   0.41108248  0.85806560  0.68584891
   0.91108245  0.35806560  0.18584893
   0.91108245  0.35806560  0.68584891
   0.91108245  0.85806560  0.18584893
   0.91108245  0.85806560  0.68584891
   0.16108245  0.10806560  0.18584893
   0.16108245  0.10806560  0.68584891
   0.16108245  0.60806560  0.18584893
   0.16108245  0.60806560  0.68584891
   0.66108245  0.10806560  0.18584893
   0.66108245  0.10806560  0.68584891
   0.66108245  0.60806560  0.18584893
   0.66108245  0.60806560  0.68584891
   0.44255575  0.41309012  0.16295406
   0.44255575  0.41309012  0.66295409
   0.44255575  0.91309012  0.16295406
   0.44255575  0.91309012  0.66295409
   0.94255572  0.41309012  0.16295406
   0.94255572  0.41309012  0.66295409
   0.94255572  0.91309012  0.16295406
   0.94255572  0.91309012  0.66295409
   0.19255571  0.16309012  0.16295406
   0.19255571  0.16309012  0.66295409
   0.19255571  0.66309012  0.16295406
   0.19255571  0.66309012  0.66295409
   0.69255572  0.16309012  0.16295406
   0.69255572  0.16309012  0.66295409
   0.69255572  0.66309012  0.16295406
   0.69255572  0.66309012  0.66295409
   0.11850863  0.11219090  0.08912945
   0.11850863  0.11219090  0.58912946
   0.11850863  0.61219086  0.08912945
   0.11850863  0.61219086  0.58912946
   0.61850863  0.11219090  0.08912945
   0.61850863  0.11219090  0.58912946
   0.61850863  0.61219086  0.08912945
   0.61850863  0.61219086  0.58912946
   0.36850863  0.36219089  0.08912945
   0.36850863  0.36219089  0.58912946
   0.36850863  0.86219086  0.08912945
   0.36850863  0.86219086  0.58912946
   0.86850863  0.36219089  0.08912945
   0.86850863  0.36219089  0.58912946
   0.86850863  0.86219086  0.08912945
   0.86850863  0.86219086  0.58912946
   0.38169110  0.43237430  0.10153134
   0.38169110  0.43237430  0.60153136
   0.38169110  0.93237433  0.10153134
   0.38169110  0.93237433  0.60153136
   0.88169107  0.43237430  0.10153134
   0.88169107  0.43237430  0.60153136
   0.88169107  0.93237433  0.10153134
   0.88169107  0.93237433  0.60153136
   0.13169106  0.18237432  0.10153134
   0.13169106  0.18237432  0.60153136
   0.13169106  0.68237433  0.10153134
   0.13169106  0.68237433  0.60153136
   0.63169107  0.18237432  0.10153134
   0.63169107  0.18237432  0.60153136
   0.63169107  0.68237433  0.10153134
   0.63169107  0.68237433  0.60153136
   0.08875172  0.14536280  0.14457335
   0.08875172  0.14536280  0.64457335
   0.08875172  0.64536280  0.14457335
   0.08875172  0.64536280  0.64457335
   0.58875170  0.14536280  0.14457335
   0.58875170  0.14536280  0.64457335
   0.58875170  0.64536280  0.14457335
   0.58875170  0.64536280  0.64457335
   0.33875170  0.39536280  0.14457335
   0.33875170  0.39536280  0.64457335
   0.33875170  0.89536280  0.14457335
   0.33875170  0.89536280  0.64457335
   0.83875170  0.39536280  0.14457335
   0.83875170  0.39536280  0.64457335
   0.83875170  0.89536280  0.14457335
   0.83875170  0.89536280  0.64457335
   0.32618079  0.37955159  0.32488893
   0.32618079  0.37955159  0.82488896
   0.32618079  0.87955156  0.32488893
   0.32618079  0.87955156  0.82488896
   0.82618079  0.37955159  0.32488893
   0.82618079  0.37955159  0.82488896
   0.82618079  0.87955156  0.32488893
   0.82618079  0.87955156  0.82488896
   0.07618080  0.12955156  0.32488893
   0.07618080  0.12955156  0.82488896
   0.07618080  0.62955156  0.32488893
   0.07618080  0.62955156  0.82488896
   0.57618079  0.12955156  0.32488893
   0.57618079  0.12955156  0.82488896
   0.57618079  0.62955156  0.32488893
   0.57618079  0.62955156  0.82488896
   0.32514209  0.43376585  0.36443355
   0.32514209  0.43376585  0.86443352
   0.32514209  0.93376585  0.36443355
   0.32514209  0.93376585  0.86443352
   0.82514209  0.43376585  0.36443355
   0.82514209  0.43376585  0.86443352
   0.82514209  0.93376585  0.36443355
   0.82514209  0.93376585  0.86443352
   0.07514209  0.18376585  0.36443355
   0.07514209  0.18376585  0.86443352
   0.07514209  0.68376585  0.36443355
   0.07514209  0.68376585  0.86443352
   0.57514209  0.18376585  0.36443355
   0.57514209  0.18376585  0.86443352
   0.57514209  0.68376585  0.36443355
   0.57514209  0.68376585  0.86443352
   0.28790680  0.38016886  0.38005772
   0.28790680  0.38016886  0.88005769
   0.28790680  0.88016883  0.38005772
   0.28790680  0.88016883  0.88005769
   0.78790683  0.38016886  0.38005772
   0.78790683  0.38016886  0.88005769
   0.78790683  0.88016883  0.38005772
   0.78790683  0.88016883  0.88005769
   0.03790683  0.13016883  0.38005772
   0.03790683  0.13016883  0.88005769
   0.03790683  0.63016883  0.38005772
   0.03790683  0.63016883  0.88005769
   0.53790683  0.13016883  0.38005772
   0.53790683  0.13016883  0.88005769
   0.53790683  0.63016883  0.38005772
   0.53790683  0.63016883  0.88005769
   0.11532822  0.12888302  0.43585939
   0.11532822  0.12888302  0.93585939
   0.11532822  0.62888303  0.43585939
   0.11532822  0.62888303  0.93585939
   0.61532822  0.12888302  0.43585939
   0.61532822  0.12888302  0.93585939
   0.61532822  0.62888303  0.43585939
   0.61532822  0.62888303  0.93585939
   0.36532822  0.37888303  0.43585939
   0.36532822  0.37888303  0.93585939
   0.36532822  0.87888303  0.43585939
   0.36532822  0.87888303  0.93585939
   0.86532822  0.37888303  0.43585939
   0.86532822  0.37888303  0.93585939
   0.86532822  0.87888303  0.43585939
   0.86532822  0.87888303  0.93585939
   0.15785303  0.13280876  0.37833342
   0.15785303  0.13280876  0.87833342
   0.15785303  0.63280873  0.37833342
   0.15785303  0.63280873  0.87833342
   0.65785303  0.13280876  0.37833342
   0.65785303  0.13280876  0.87833342
   0.65785303  0.63280873  0.37833342
   0.65785303  0.63280873  0.87833342
   0.40785303  0.38280876  0.37833342
   0.40785303  0.38280876  0.87833342
   0.40785303  0.88280879  0.37833342
   0.40785303  0.88280879  0.87833342
   0.90785303  0.38280876  0.37833342
   0.90785303  0.38280876  0.87833342
   0.90785303  0.88280879  0.37833342
   0.90785303  0.88280879  0.87833342
   0.36766117  0.32354623  0.39047889
   0.36766117  0.32354623  0.89047892
   0.36766117  0.82354623  0.39047889
   0.36766117  0.82354623  0.89047892
   0.86766117  0.32354623  0.39047889
   0.86766117  0.32354623  0.89047892
   0.86766117  0.82354623  0.39047889
   0.86766117  0.82354623  0.89047892
   0.11766117  0.07354623  0.39047889
   0.11766117  0.07354623  0.89047892
   0.11766117  0.57354623  0.39047889
   0.11766117  0.57354623  0.89047892
   0.61766117  0.07354623  0.39047889
   0.61766117  0.07354623  0.89047892
   0.61766117  0.57354623  0.39047889
   0.61766117  0.57354623  0.89047892
   0.38599779  0.17589227  0.40174436
   0.38599779  0.17589227  0.90174436
   0.38599779  0.67589227  0.40174436
   0.38599779  0.67589227  0.90174436
   0.88599779  0.17589227  0.40174436
   0.88599779  0.17589227  0.90174436
   0.88599779  0.67589227  0.40174436
   0.88599779  0.67589227  0.90174436
   0.13599779  0.42589227  0.40174436
   0.13599779  0.42589227  0.90174436
   0.13599779  0.92589227  0.40174436
   0.13599779  0.92589227  0.90174436
   0.63599779  0.42589227  0.40174436
   0.63599779  0.42589227  0.90174436
   0.63599779  0.92589227  0.40174436
   0.63599779  0.92589227  0.90174436
   0.34285682  0.17682691  0.35237553
   0.34285682  0.17682691  0.85237556
   0.34285682  0.67682693  0.35237553
   0.34285682  0.67682693  0.85237556
   0.84285682  0.17682691  0.35237553
   0.84285682  0.17682691  0.85237556
   0.84285682  0.67682693  0.35237553
   0.84285682  0.67682693  0.85237556
   0.09285682  0.42682693  0.35237553
   0.09285682  0.42682693  0.85237556
   0.09285682  0.92682693  0.35237553
   0.09285682  0.92682693  0.85237556
   0.59285682  0.42682693  0.35237553
   0.59285682  0.42682693  0.85237556
   0.59285682  0.92682693  0.35237553
   0.59285682  0.92682693  0.85237556
   0.40805455  0.15985246  0.34057779
   0.40805455  0.15985246  0.84057779
   0.40805455  0.65985247  0.34057779
   0.40805455  0.65985247  0.84057779
   0.90805455  0.15985246  0.34057779
   0.90805455  0.15985246  0.84057779
   0.90805455  0.65985247  0.34057779
   0.90805455  0.65985247  0.84057779
   0.15805455  0.40985247  0.34057779
   0.15805455  0.40985247  0.84057779
   0.15805455  0.90985247  0.34057779
   0.15805455  0.90985247  0.84057779
   0.65805455  0.40985247  0.34057779
   0.65805455  0.40985247  0.84057779
   0.65805455  0.90985247  0.34057779
   0.65805455  0.90985247  0.84057779
   0.08015834  0.34651177  0.40576379
   0.08015834  0.34651177  0.90576379
   0.08015834  0.84651177  0.40576379
   0.08015834  0.84651177  0.90576379
   0.58015836  0.34651177  0.40576379
   0.58015836  0.34651177  0.90576379
   0.58015836  0.84651177  0.40576379
   0.58015836  0.84651177  0.90576379
   0.33015833  0.09651177  0.40576379
   0.33015833  0.09651177  0.90576379
   0.33015833  0.59651177  0.40576379
   0.33015833  0.59651177  0.90576379
   0.83015836  0.09651177  0.40576379
   0.83015836  0.09651177  0.90576379
   0.83015836  0.59651177  0.40576379
   0.83015836  0.59651177  0.90576379
   0.14813707  0.32685393  0.39091261
   0.14813707  0.32685393  0.89091261
   0.14813707  0.82685393  0.39091261
   0.14813707  0.82685393  0.89091261
   0.64813707  0.32685393  0.39091261
   0.64813707  0.32685393  0.89091261
   0.64813707  0.82685393  0.39091261
   0.64813707  0.82685393  0.89091261
   0.39813707  0.07685393  0.39091261
   0.39813707  0.07685393  0.89091261
   0.39813707  0.57685393  0.39091261
   0.39813707  0.57685393  0.89091261
   0.89813707  0.07685393  0.39091261
   0.89813707  0.07685393  0.89091261
   0.89813707  0.57685393  0.39091261
   0.89813707  0.57685393  0.89091261
   0.34836521  0.08076357  0.33941486
   0.34836521  0.08076357  0.83941486
   0.34836521  0.58076358  0.33941486
   0.34836521  0.58076358  0.83941486
   0.84836521  0.08076357  0.33941486
   0.84836521  0.08076357  0.83941486
   0.84836521  0.58076358  0.33941486
   0.84836521  0.58076358  0.83941486
   0.09836521  0.33076358  0.33941486
   0.09836521  0.33076358  0.83941486
   0.09836521  0.83076358  0.33941486
   0.09836521  0.83076358  0.83941486
   0.59836521  0.33076358  0.33941486
   0.59836521  0.33076358  0.83941486
   0.59836521  0.83076358  0.33941486
   0.59836521  0.83076358  0.83941486
   0.99172139  0.00298980  0.11997654
   0.99172139  0.00298980  0.61997654
   0.99172139  0.50298980  0.11997654
   0.99172139  0.50298980  0.61997654
   0.49172139  0.00298980  0.11997654
   0.49172139  0.00298980  0.61997654
   0.49172139  0.50298980  0.11997654
   0.49172139  0.50298980  0.61997654
   0.24172139  0.25298980  0.11997654
   0.24172139  0.25298980  0.61997654
   0.24172139  0.75298980  0.11997654
   0.24172139  0.75298980  0.61997654
   0.74172139  0.25298980  0.11997654
   0.74172139  0.25298980  0.61997654
   0.74172139  0.75298980  0.11997654
   0.74172139  0.75298980  0.61997654
   0.99324394  0.98155660  0.37022660
   0.99324394  0.98155660  0.87022660
   0.99324394  0.48155661  0.37022660
   0.99324394  0.48155661  0.87022660
   0.49324394  0.98155660  0.37022660
   0.49324394  0.98155660  0.87022660
   0.49324394  0.48155661  0.37022660
   0.49324394  0.48155661  0.87022660
   0.24324394  0.23155661  0.37022660
   0.24324394  0.23155661  0.87022660
   0.24324394  0.73155661  0.37022660
   0.24324394  0.73155661  0.87022660
   0.74324394  0.23155661  0.37022660
   0.74324394  0.23155661  0.87022660
   0.74324394  0.73155661  0.37022660
   0.74324394  0.73155661  0.87022660
   0.24493075  0.01710531  0.37323595
   0.24493075  0.01710531  0.87323595
   0.24493075  0.51710531  0.37323595
   0.24493075  0.51710531  0.87323595
   0.74493075  0.01710531  0.37323595
   0.74493075  0.01710531  0.87323595
   0.74493075  0.51710531  0.37323595
   0.74493075  0.51710531  0.87323595
   0.99493075  0.26710531  0.37323595
   0.99493075  0.26710531  0.87323595
   0.99493075  0.76710531  0.37323595
   0.99493075  0.76710531  0.87323595
   0.49493075  0.26710531  0.37323595
   0.49493075  0.26710531  0.87323595
   0.49493075  0.76710531  0.37323595
   0.49493075  0.76710531  0.87323595
   0.24746864  0.99156947  0.12666630
   0.24746864  0.99156947  0.62666630
   0.24746864  0.49156947  0.12666630
   0.24746864  0.49156947  0.62666630
   0.74746864  0.99156947  0.12666630
   0.74746864  0.99156947  0.62666630
   0.74746864  0.49156947  0.12666630
   0.74746864  0.49156947  0.62666630
   0.99746864  0.24156947  0.12666630
   0.99746864  0.24156947  0.62666630
   0.99746864  0.74156947  0.12666630
   0.99746864  0.74156947  0.62666630
   0.49746864  0.24156947  0.12666630
   0.49746864  0.24156947  0.62666630
   0.49746864  0.74156947  0.12666630
   0.49746864  0.74156947  0.62666630
   0.23894960  0.12641293  0.03512507
   0.23894960  0.12641293  0.53512507
   0.23894960  0.62641293  0.03512507
   0.23894960  0.62641293  0.53512507
   0.73894960  0.12641293  0.03512507
   0.73894960  0.12641293  0.53512507
   0.73894960  0.62641293  0.03512507
   0.73894960  0.62641293  0.53512507
   0.48894960  0.37641293  0.03512507
   0.48894960  0.37641293  0.53512507
   0.48894960  0.87641293  0.03512507
   0.48894960  0.87641293  0.53512507
   0.98894960  0.37641293  0.03512507
   0.98894960  0.37641293  0.53512507
   0.98894960  0.87641293  0.03512507
   0.98894960  0.87641293  0.53512507
   0.24708070  0.37335067  0.98290636
   0.24708070  0.37335067  0.48290636
   0.24708070  0.87335067  0.98290636
   0.24708070  0.87335067  0.48290636
   0.74708070  0.37335067  0.98290636
   0.74708070  0.37335067  0.48290636
   0.74708070  0.87335067  0.98290636
   0.74708070  0.87335067  0.48290636
   0.99708070  0.12335067  0.98290636
   0.99708070  0.12335067  0.48290636
   0.99708070  0.62335067  0.98290636
   0.99708070  0.62335067  0.48290636
   0.49708070  0.12335067  0.98290636
   0.49708070  0.12335067  0.48290636
   0.49708070  0.62335067  0.98290636
   0.49708070  0.62335067  0.48290636
   0.12589742  0.47927168  0.99493372
   0.12589742  0.47927168  0.49493372
   0.12589742  0.97927168  0.99493372
   0.12589742  0.97927168  0.49493372
   0.62589742  0.47927168  0.99493372
   0.62589742  0.47927168  0.49493372
   0.62589742  0.97927168  0.99493372
   0.62589742  0.97927168  0.49493372
   0.37589742  0.22927168  0.99493372
   0.37589742  0.22927168  0.49493372
   0.37589742  0.72927168  0.99493372
   0.37589742  0.72927168  0.49493372
   0.87589742  0.22927168  0.99493372
   0.87589742  0.22927168  0.49493372
   0.87589742  0.72927168  0.99493372
   0.87589742  0.72927168  0.49493372
   0.38048879  0.99386823  0.01810857
   0.38048879  0.99386823  0.51810857
   0.38048879  0.49386823  0.01810857
   0.38048879  0.49386823  0.51810857
   0.88048879  0.99386823  0.01810857
   0.88048879  0.99386823  0.51810857
   0.88048879  0.49386823  0.01810857
   0.88048879  0.49386823  0.51810857
   0.13048879  0.24386823  0.01810857
   0.13048879  0.24386823  0.51810857
   0.13048879  0.74386823  0.01810857
   0.13048879  0.74386823  0.51810857
   0.63048879  0.24386823  0.01810857
   0.63048879  0.24386823  0.51810857
   0.63048879  0.74386823  0.01810857
   0.63048879  0.74386823  0.51810857
   0.11961757  0.05182731  0.25839514
   0.11961757  0.05182731  0.75839514
   0.11961757  0.55182732  0.25839514
   0.11961757  0.55182732  0.75839514
   0.61961757  0.05182731  0.25839514
   0.61961757  0.05182731  0.75839514
   0.61961757  0.55182732  0.25839514
   0.61961757  0.55182732  0.75839514
   0.36961757  0.30182732  0.25839514
   0.36961757  0.30182732  0.75839514
   0.36961757  0.80182732  0.25839514
   0.36961757  0.80182732  0.75839514
   0.86961757  0.30182732  0.25839514
   0.86961757  0.30182732  0.75839514
   0.86961757  0.80182732  0.25839514
   0.86961757  0.80182732  0.75839514
   0.37626624  0.46918617  0.24956998
   0.37626624  0.46918617  0.74956998
   0.37626624  0.96918617  0.24956998
   0.37626624  0.96918617  0.74956998
   0.87626624  0.46918617  0.24956998
   0.87626624  0.46918617  0.74956998
   0.87626624  0.96918617  0.24956998
   0.87626624  0.96918617  0.74956998
   0.12626624  0.21918617  0.24956998
   0.12626624  0.21918617  0.74956998
   0.12626624  0.71918617  0.24956998
   0.12626624  0.71918617  0.74956998
   0.62626624  0.21918617  0.24956998
   0.62626624  0.21918617  0.74956998
   0.62626624  0.71918617  0.24956998
   0.62626624  0.71918617  0.74956998
   0.28671743  0.12851872  0.23598285
   0.28671743  0.12851872  0.73598285
   0.28671743  0.62851872  0.23598285
   0.28671743  0.62851872  0.73598285
   0.78671743  0.12851872  0.23598285
   0.78671743  0.12851872  0.73598285
   0.78671743  0.62851872  0.23598285
   0.78671743  0.62851872  0.73598285
   0.03671743  0.37851872  0.23598285
   0.03671743  0.37851872  0.73598285
   0.03671743  0.87851872  0.23598285
   0.03671743  0.87851872  0.73598285
   0.53671743  0.37851872  0.23598285
   0.53671743  0.37851872  0.73598285
   0.53671743  0.87851872  0.23598285
   0.53671743  0.87851872  0.73598285
   0.21299242  0.37858273  0.26283293
   0.21299242  0.37858273  0.76283293
   0.21299242  0.87858273  0.26283293
   0.21299242  0.87858273  0.76283293
   0.71299242  0.37858273  0.26283293
   0.71299242  0.37858273  0.76283293
   0.71299242  0.87858273  0.26283293
   0.71299242  0.87858273  0.76283293
   0.46299242  0.12858273  0.26283293
   0.46299242  0.12858273  0.76283293
   0.46299242  0.62858273  0.26283293
   0.46299242  0.62858273  0.76283293
   0.96299242  0.12858273  0.26283293
   0.96299242  0.12858273  0.76283293
   0.96299242  0.62858273  0.26283293
   0.96299242  0.62858273  0.76283293
   0.42236293  0.37852507  0.15169359
   0.42236293  0.37852507  0.65169362
   0.42236293  0.87852505  0.15169359
   0.42236293  0.87852505  0.65169362
   0.92236293  0.37852507  0.15169359
   0.92236293  0.37852507  0.65169362
   0.92236293  0.87852505  0.15169359
   0.92236293  0.87852505  0.65169362
   0.17236293  0.12852505  0.15169359
   0.17236293  0.12852505  0.65169362
   0.17236293  0.62852505  0.15169359
   0.17236293  0.62852505  0.65169362
   0.67236293  0.12852505  0.15169359
   0.67236293  0.12852505  0.65169362
   0.67236293  0.62852505  0.15169359
   0.67236293  0.62852505  0.65169362
   0.35532652  0.10620829  0.11213940
   0.35532652  0.10620829  0.61213940
   0.35532652  0.60620829  0.11213940
   0.35532652  0.60620829  0.61213940
   0.85532655  0.10620829  0.11213940
   0.85532655  0.10620829  0.61213940
   0.85532655  0.60620829  0.11213940
   0.85532655  0.60620829  0.61213940
   0.10532655  0.35620829  0.11213940
   0.10532655  0.35620829  0.61213940
   0.10532655  0.85620829  0.11213940
   0.10532655  0.85620829  0.61213940
   0.60532655  0.35620829  0.11213940
   0.60532655  0.35620829  0.61213940
   0.60532655  0.85620829  0.11213940
   0.60532655  0.85620829  0.61213940
   0.32458149  0.39188798  0.36373890
   0.32458149  0.39188798  0.86373893
   0.32458149  0.89188798  0.36373890
   0.32458149  0.89188798  0.86373893
   0.82458149  0.39188798  0.36373890
   0.82458149  0.39188798  0.86373893
   0.82458149  0.89188798  0.36373890
   0.82458149  0.89188798  0.86373893
   0.07458148  0.14188798  0.36373890
   0.07458148  0.14188798  0.86373893
   0.07458148  0.64188798  0.36373890
   0.07458148  0.64188798  0.86373893
   0.57458149  0.14188798  0.36373890
   0.57458149  0.14188798  0.86373893
   0.57458149  0.64188798  0.36373890
   0.57458149  0.64188798  0.86373893
   0.37614223  0.15605625  0.36712025
   0.37614223  0.15605625  0.86712028
   0.37614223  0.65605625  0.36712025
   0.37614223  0.65605625  0.86712028
   0.87614223  0.15605625  0.36712025
   0.87614223  0.15605625  0.86712028
   0.87614223  0.65605625  0.36712025
   0.87614223  0.65605625  0.86712028
   0.12614223  0.40605625  0.36712025
   0.12614223  0.40605625  0.86712028
   0.12614223  0.90605625  0.36712025
   0.12614223  0.90605625  0.86712028
   0.62614223  0.40605625  0.36712025
   0.62614223  0.40605625  0.86712028
   0.62614223  0.90605625  0.36712025
   0.62614223  0.90605625  0.86712028
   0.00134055  0.00790876  0.23890158
   0.00134055  0.00790876  0.73890158
   0.00134055  0.50790876  0.23890158
   0.00134055  0.50790876  0.73890158
   0.50134055  0.00790876  0.23890158
   0.50134055  0.00790876  0.73890158
   0.50134055  0.50790876  0.23890158
   0.50134055  0.50790876  0.73890158
   0.25134055  0.25790876  0.23890158
   0.25134055  0.25790876  0.73890158
   0.25134055  0.75790876  0.23890158
   0.25134055  0.75790876  0.73890158
   0.75134055  0.25790876  0.23890158
   0.75134055  0.25790876  0.73890158
   0.75134055  0.75790876  0.23890158
   0.75134055  0.75790876  0.73890158
   0.25518940  0.99783251  0.99622780
   0.25518940  0.99783251  0.49622780
   0.25518940  0.49783251  0.99622780
   0.25518940  0.49783251  0.49622780
   0.75518940  0.99783251  0.99622780
   0.75518940  0.99783251  0.49622780
   0.75518940  0.49783251  0.99622780
   0.75518940  0.49783251  0.49622780
   0.00518940  0.24783251  0.99622780
   0.00518940  0.24783251  0.49622780
   0.00518940  0.74783251  0.99622780
   0.00518940  0.74783251  0.49622780
   0.50518940  0.24783251  0.99622780
   0.50518940  0.24783251  0.49622780
   0.50518940  0.74783251  0.99622780
   0.50518940  0.74783251  0.49622780
   0.25312920  0.00011161  0.24478052
   0.25312920  0.00011161  0.74478052
   0.25312920  0.50011162  0.24478052
   0.25312920  0.50011162  0.74478052
   0.75312920  0.00011161  0.24478052
   0.75312920  0.00011161  0.74478052
   0.75312920  0.50011162  0.24478052
   0.75312920  0.50011162  0.74478052
   0.00312920  0.25011162  0.24478052
   0.00312920  0.25011162  0.74478052
   0.00312920  0.75011162  0.24478052
   0.00312920  0.75011162  0.74478052
   0.50312920  0.25011162  0.24478052
   0.50312920  0.25011162  0.74478052
   0.50312920  0.75011162  0.24478052
   0.50312920  0.75011162  0.74478052
   0.00728508  0.99401823  0.99579478
   0.00728508  0.99401823  0.49579478
   0.00728508  0.49401822  0.99579478
   0.00728508  0.49401822  0.49579478
   0.50728508  0.99401823  0.99579478
   0.50728508  0.99401823  0.49579478
   0.50728508  0.49401822  0.99579478
   0.50728508  0.49401822  0.49579478
   0.25728508  0.24401822  0.99579478
   0.25728508  0.24401822  0.49579478
   0.25728508  0.74401822  0.99579478
   0.25728508  0.74401822  0.49579478
   0.75728508  0.24401822  0.99579478
   0.75728508  0.24401822  0.49579478
   0.75728508  0.74401822  0.99579478
   0.75728508  0.74401822  0.49579478
Direct configuration=    20
   0.12548848  0.14027984  0.11872166
   0.12548848  0.14027984  0.61872169
   0.12548848  0.64027983  0.11872166
   0.12548848  0.64027983  0.61872169
   0.62548850  0.14027984  0.11872166
   0.62548850  0.14027984  0.61872169
   0.62548850  0.64027983  0.11872166
   0.62548850  0.64027983  0.61872169
   0.37548850  0.39027983  0.11872166
   0.37548850  0.39027983  0.61872169
   0.37548850  0.89027983  0.11872166
   0.37548850  0.89027983  0.61872169
   0.87548850  0.39027983  0.11872166
   0.87548850  0.39027983  0.61872169