       N       E                     dE             d eps       ncg     rms          rms(c)
DAV:   1     0.198584264451E+05    0.19858E+05   -0.94843E+05  3400   0.107E+03
DAV:   2    -0.262824303827E+03   -0.20121E+05   -0.19383E+05  4784   0.233E+02
DAV:   3    -0.331754945752E+04   -0.30547E+04   -0.30341E+04  3920   0.993E+01
DAV:   4    -0.343943721201E+04   -0.12189E+03   -0.12143E+03  3976   0.231E+01
DAV:   5    -0.344396758555E+04   -0.45304E+01   -0.45259E+01  4920   0.438E+00    0.102E+02
DAV:   6    -0.327529989411E+04    0.16867E+03   -0.34986E+02  3944   0.103E+01    0.575E+01
DAV:   7    -0.325278246571E+04    0.22517E+02   -0.14163E+02  3896   0.707E+00    0.285E+01
DAV:   8    -0.325170707389E+04    0.10754E+01   -0.19667E+01  3936   0.272E+00    0.953E+00
DAV:   9    -0.325173970407E+04   -0.32630E-01   -0.23892E+00  3944   0.986E-01    0.437E+00
DAV:  10    -0.325175371007E+04   -0.14006E-01   -0.72122E-01  3776   0.490E-01    0.144E+00
DAV:  11    -0.325173020568E+04    0.23504E-01   -0.16720E-01  3864   0.265E-01    0.539E-01
DAV:  12    -0.325173799738E+04   -0.77917E-02   -0.41812E-02  4192   0.134E-01    0.328E-01
DAV:  13    -0.325173988696E+04   -0.18896E-02   -0.50110E-03  3880   0.488E-02    0.202E-01
DAV:  14    -0.325174069586E+04   -0.80890E-03   -0.16334E-03  3888   0.262E-02    0.740E-02
DAV:  15    -0.325174099182E+04   -0.29596E-03   -0.31790E-04  3656   0.135E-02    0.403E-02
DAV:  16    -0.325174101611E+04   -0.24289E-04   -0.13779E-04  4296   0.748E-03    0.210E-02
DAV:  17    -0.325174102285E+04   -0.67470E-05   -0.18804E-05  4232   0.286E-03    0.186E-02
DAV:  18    -0.325174102286E+04   -0.10055E-07   -0.83089E-06  3808   0.182E-03    0.812E-03
DAV:  19    -0.325174102467E+04   -0.18060E-05   -0.80313E-06  3656   0.201E-03    0.568E-03
DAV:  20    -0.325174102464E+04    0.30792E-07   -0.67871E-07  3704   0.558E-04
    1 T=     1. E= -.33243562E+04 F= -.33244157E+04 E0= -.33244157E+04  EK= 0.59486E-01 SP= 0.00E+00 SK= 0.00E+00
       N       E                     dE             d eps       ncg     rms          rms(c)
DAV:   1    -0.325216010777E+04   -0.41908E+00   -0.18461E+00  3816   0.863E-01    0.582E-01
DAV:   2    -0.325216493418E+04   -0.48264E-02   -0.85538E-02  3776   0.183E-01    0.419E-01
DAV:   3    -0.325216314634E+04    0.17878E-02   -0.67945E-03  4000   0.524E-02    0.222E-01
DAV:   4    -0.325216298559E+04    0.16075E-03   -0.17407E-03  3928   0.277E-02    0.786E-02
DAV:   5    -0.325216297699E+04    0.85942E-05   -0.23344E-04  4344   0.107E-02    0.222E-02
DAV:   6    -0.325216297651E+04    0.48213E-06   -0.31421E-05  3840   0.390E-03    0.158E-02
DAV:   7    -0.325216297556E+04    0.95562E-06   -0.35378E-06  3920   0.127E-03    0.802E-03
DAV:   8    -0.325216297515E+04    0.40268E-06   -0.17163E-06  3728   0.104E-03    0.193E-03
DAV:   9    -0.325216297521E+04   -0.53726E-07   -0.67589E-07  3080   0.612E-04
    2 T=     5. E= -.33243869E+04 F= -.33248367E+04 E0= -.33248367E+04  EK= 0.44977E+00 SP= 0.00E+00 SK= 0.00E+00
       N       E                     dE             d eps       ncg     rms          rms(c)
DAV:   1    -0.325230005564E+04   -0.13708E+00   -0.19666E-01  5768   0.196E+01    0.615E-01
DAV:   2    -0.325250542719E+04   -0.20537E+00   -0.20925E+00  3648   0.929E-01    0.265E-01
DAV:   3    -0.325250681872E+04   -0.13915E-02   -0.20965E-02  4080   0.982E-02    0.191E-01
DAV:   4    -0.325250666382E+04    0.15491E-03   -0.10563E-03  4016   0.223E-02    0.157E-01
DAV:   5    -0.325250649440E+04    0.16941E-03   -0.21183E-04  4432   0.104E-02    0.111E-01
DAV:   6    -0.325250642535E+04    0.69059E-04   -0.94668E-05  3968   0.642E-03    0.765E-02
DAV:   7    -0.325250638111E+04    0.44235E-04   -0.49398E-05  4248   0.544E-03    0.358E-02
DAV:   8    -0.325250637429E+04    0.68201E-05   -0.47855E-05  4080   0.437E-03    0.127E-02
DAV:   9    -0.325250637474E+04   -0.44805E-06   -0.34077E-06  3504   0.122E-03    0.101E-02
DAV:  10    -0.325250637479E+04   -0.53245E-07   -0.70246E-07  2848   0.602E-04
    3 T=     8. E= -.33244116E+04 F= -.33251785E+04 E0= -.33251785E+04  EK= 0.76685E+00 SP= 0.00E+00 SK= 0.00E+00
       N       E                     dE             d eps       ncg     rms          rms(c)
DAV:   1    -0.325070675626E+04    0.17996E+01   -0.89404E-03  5416   0.299E+01    0.670E+00
DAV:   2    -0.325237396208E+04   -0.16672E+01   -0.16670E+01  3392   0.133E+00    0.256E+00
DAV:   3    -0.325240699443E+04   -0.33032E-01   -0.33410E-01  4712   0.275E-01    0.192E+00
DAV:   4    -0.325240715340E+04   -0.15896E-03   -0.28363E-03  4248   0.319E-02    0.167E+00
DAV:   5    -0.325240708099E+04    0.72404E-04   -0.16464E-04  4448   0.702E-03    0.132E+00
DAV:   6    -0.325240697676E+04    0.10424E-03   -0.88390E-05  3736   0.532E-03    0.698E-01
DAV:   7    -0.325240695759E+04    0.19166E-04   -0.33774E-05  3912   0.290E-03    0.485E-01
DAV:   8    -0.325240694585E+04    0.11744E-04   -0.58443E-06  3728   0.139E-03    0.299E-01
DAV:   9    -0.325240693666E+04    0.91913E-05   -0.90387E-06  3896   0.152E-03    0.667E-02
DAV:  10    -0.325240693588E+04    0.77434E-06   -0.74047E-07  3632   0.535E-04    0.211E-02
DAV:  11    -0.325240693579E+04    0.96567E-07   -0.48647E-08  2048   0.162E-04
    4 T=     7. E= -.33243971E+04 F= -.33250774E+04 E0= -.33250774E+04  EK= 0.68029E+00 SP= 0.00E+00 SK= 0.00E+00
       N       E                     dE             d eps       ncg     rms          rms(c)
DAV:   1    -0.325204914877E+04    0.35779E+00   -0.68072E-04  6008   0.241E+01    0.817E-02
DAV:   2    -0.325207623409E+04   -0.27085E-01   -0.27180E-01  3856   0.294E-01    0.115E-01
DAV:   3    -0.325207645357E+04   -0.21949E-03   -0.36380E-03  4544   0.380E-02    0.909E-02
DAV:   4    -0.325207634496E+04    0.10861E-03   -0.42368E-04  4384   0.124E-02    0.496E-02
DAV:   5    -0.325207633430E+04    0.10661E-04   -0.50004E-05  3848   0.483E-03    0.364E-02
DAV:   6    -0.325207632857E+04    0.57312E-05   -0.23561E-05  4192   0.273E-03    0.177E-02
DAV:   7    -0.325207632805E+04    0.51680E-06   -0.71847E-06  3632   0.176E-03    0.539E-03
DAV:   8    -0.325207632760E+04    0.45376E-06   -0.16073E-06  2864   0.751E-04    0.287E-03
DAV:   9    -0.325207632743E+04    0.16352E-06   -0.30202E-07  2640   0.347E-04    0.177E-03
DAV:  10    -0.325207632728E+04    0.15397E-06   -0.30364E-08  2024   0.132E-04    0.960E-04
DAV:  11    -0.325207632717E+04    0.10875E-06   -0.35922E-08  1968   0.127E-04    0.246E-04
DAV:  12    -0.325207632717E+04    0.18190E-08   -0.17197E-08  1952   0.916E-05
    5 T=     4. E= -.33243629E+04 F= -.33247455E+04 E0= -.33247455E+04  EK= 0.38259E+00 SP= 0.00E+00 SK= 0.00E+00
       N       E                     dE             d eps       ncg     rms          rms(c)
DAV:   1    -0.325184162585E+04    0.23470E+00   -0.46138E-04  5456   0.224E+01    0.193E-01
DAV:   2    -0.325201049360E+04   -0.16887E+00   -0.16895E+00  3616   0.570E-01    0.112E-01
DAV:   3    -0.325201250723E+04   -0.20136E-02   -0.21808E-02  4568   0.707E-02    0.867E-02
DAV:   4    -0.325201252903E+04   -0.21804E-04   -0.86923E-04  4400   0.146E-02    0.564E-02
DAV:   5    -0.325201252206E+04    0.69744E-05   -0.59527E-05  4040   0.389E-03    0.382E-02
DAV:   6    -0.325201250984E+04    0.12216E-04   -0.30700E-05  4088   0.327E-03    0.106E-02
DAV:   7    -0.325201250906E+04    0.78056E-06   -0.59493E-06  3792   0.159E-03    0.731E-03
DAV:   8    -0.325201250941E+04   -0.34901E-06   -0.32012E-07  2864   0.389E-04    0.399E-03
DAV:   9    -0.325201250940E+04    0.89058E-08   -0.32055E-07  2672   0.358E-04
    6 T=     3. E= -.33243538E+04 F= -.33246811E+04 E0= -.33246811E+04  EK= 0.32737E+00 SP= 0.00E+00 SK= 0.00E+00
       N       E                     dE             d eps       ncg     rms          rms(c)
DAV:   1    -0.325231575553E+04   -0.30325E+00   -0.11722E-04  6056   0.224E+01    0.609E-02
DAV:   2    -0.325234788197E+04   -0.32126E-01   -0.32142E-01  3712   0.263E-01    0.446E-02
DAV:   3    -0.325234835366E+04   -0.47169E-03   -0.49526E-03  4720   0.393E-02    0.337E-02
DAV:   4    -0.325234835181E+04    0.18506E-05   -0.11965E-04  4552   0.625E-03    0.230E-02
DAV:   5    -0.325234834753E+04    0.42749E-05   -0.12323E-05  4160   0.231E-03    0.132E-02
DAV:   6    -0.325234834497E+04    0.25650E-05   -0.47961E-06  3880   0.156E-03    0.344E-03
DAV:   7    -0.325234834508E+04   -0.11259E-06   -0.11496E-06  2944   0.688E-04    0.291E-03
DAV:   8    -0.325234834522E+04   -0.13928E-06   -0.44407E-08  2088   0.186E-04    0.223E-03
DAV:   9    -0.325234834534E+04   -0.12373E-06   -0.16601E-07  2448   0.241E-04    0.574E-04
DAV:  10    -0.325234834535E+04   -0.17462E-08   -0.16866E-08  1944   0.973E-05
    7 T=     6. E= -.33243820E+04 F= -.33250172E+04 E0= -.33250172E+04  EK= 0.63522E+00 SP= 0.00E+00 SK= 0.00E+00
       N       E                     dE             d eps       ncg     rms          rms(c)
DAV:   1    -0.325264470743E+04   -0.29636E+00   -0.16977E-04  5832   0.197E+01    0.750E-02
DAV:   2    -0.325267218789E+04   -0.27480E-01   -0.27535E-01  3800   0.248E-01    0.749E-02
DAV:   3    -0.325267257570E+04   -0.38782E-03   -0.45579E-03  4632   0.383E-02    0.575E-02
DAV:   4    -0.325267254285E+04    0.32850E-04   -0.20854E-04  4520   0.899E-03    0.343E-02
DAV:   5    -0.325267253736E+04    0.54944E-05   -0.25990E-05  4144   0.351E-03    0.234E-02
DAV:   6    -0.325267253434E+04    0.30175E-05   -0.10763E-05  3920   0.218E-03    0.890E-03
DAV:   7    -0.325267253499E+04   -0.64760E-06   -0.51836E-06  3848   0.143E-03    0.407E-03
DAV:   8    -0.325267253499E+04    0.11059E-08   -0.62634E-07  2776   0.494E-04
    8 T=     9. E= -.33244111E+04 F= -.33253423E+04 E0= -.33253423E+04  EK= 0.93123E+00 SP= 0.00E+00 SK= 0.00E+00
       N       E                     dE             d eps       ncg     rms          rms(c)
DAV:   1    -0.325254549067E+04    0.12704E+00   -0.53686E-04  5456   0.162E+01    0.102E-01
DAV:   2    -0.325255984136E+04   -0.14351E-01   -0.14477E-01  3832   0.204E-01    0.101E-01
DAV:   3    -0.325255987612E+04   -0.34758E-04   -0.15632E-03  4360   0.241E-02    0.776E-02
DAV:   4    -0.325255978891E+04    0.87207E-04   -0.32067E-04  4208   0.113E-02    0.410E-02
DAV:   5    -0.325255978391E+04    0.50004E-05   -0.56202E-05  3904   0.504E-03    0.285E-02
DAV:   6    -0.325255978170E+04    0.22090E-05   -0.10671E-05  3976   0.216E-03    0.148E-02
DAV:   7    -0.325255978221E+04   -0.50590E-06   -0.55815E-06  3760   0.157E-03    0.414E-03
DAV:   8    -0.325255978221E+04   -0.54861E-08   -0.12882E-06  2824   0.702E-04    0.265E-03
DAV:   9    -0.325255978237E+04   -0.15521E-06   -0.32610E-07  2648   0.351E-04    0.163E-03
DAV:  10    -0.325255978253E+04   -0.16394E-06   -0.46548E-08  1960   0.160E-04    0.817E-04
DAV:  11    -0.325255978266E+04   -0.13181E-06   -0.20185E-08  1936   0.112E-04    0.285E-04
DAV:  12    -0.325255978268E+04   -0.16473E-07   -0.19797E-08  1912   0.891E-05
    9 T=     8. E= -.33244039E+04 F= -.33252309E+04 E0= -.33252309E+04  EK= 0.82705E+00 SP= 0.00E+00 SK= 0.00E+00
       N       E                     dE             d eps       ncg     rms          rms(c)
DAV:   1    -0.325210881167E+04    0.45097E+00   -0.42755E-03  5136   0.133E+01    0.187E-01
DAV:   2    -0.325211819721E+04   -0.93855E-02   -0.97209E-02  3800   0.201E-01    0.139E-01
DAV:   3    -0.325211805546E+04    0.14175E-03   -0.83174E-04  4096   0.219E-02    0.101E-01
DAV:   4    -0.325211788806E+04    0.16740E-03   -0.55694E-04  4312   0.149E-02    0.467E-02
DAV:   5    -0.325211788619E+04    0.18705E-05   -0.11333E-04  3920   0.653E-03    0.335E-02
DAV:   6    -0.325211788316E+04    0.30310E-05   -0.96910E-06  3928   0.208E-03    0.186E-02
DAV:   7    -0.325211788287E+04    0.29104E-06   -0.61822E-06  3808   0.160E-03    0.444E-03
DAV:   8    -0.325211788296E+04   -0.88417E-07   -0.11654E-06  2872   0.682E-04    0.288E-03
DAV:   9    -0.325211788305E+04   -0.89320E-07   -0.23474E-07  2656   0.317E-04
   10 T=     4. E= -.33243687E+04 F= -.33247902E+04 E0= -.33247902E+04  EK= 0.42150E+00 SP= 0.00E+00 SK= 0.00E+00
       N       E                     dE             d eps       ncg     rms          rms(c)
DAV:   1    -0.325183026937E+04    0.28761E+00   -0.28664E-03  5200   0.177E+01    0.181E-01
DAV:   2    -0.325186224053E+04   -0.31971E-01   -0.32211E-01  3728   0.307E-01    0.148E-01
DAV:   3    -0.325186234760E+04   -0.10706E-03   -0.34436E-03  4408   0.350E-02    0.111E-01
DAV:   4    -0.325186218864E+04    0.15895E-03   -0.74624E-04  4368   0.169E-02    0.520E-02
DAV:   5    -0.325186218783E+04    0.80932E-06   -0.75101E-05  3720   0.592E-03    0.408E-02
DAV:   6    -0.325186218217E+04    0.56669E-05   -0.16619E-05  3944   0.266E-03    0.189E-02
DAV:   7    -0.325186218206E+04    0.10486E-06   -0.85345E-06  3824   0.183E-03    0.516E-03
DAV:   8    -0.325186218182E+04    0.23899E-06   -0.16484E-06  2928   0.778E-04    0.331E-03
DAV:   9    -0.325186218170E+04    0.11960E-06   -0.26430E-07  2616   0.330E-04    0.135E-03
DAV:  10    -0.325186218161E+04    0.92725E-07   -0.37769E-08  2000   0.153E-04
   11 T=     7. E= -.33238806E+04 F= -.33245350E+04 E0= -.33245350E+04  EK= 0.65434E+00 SP= 0.00E+00 SK= 0.00E+00
       N       E                     dE             d eps       ncg     rms          rms(c)
DAV:   1    -0.325135630977E+04    0.50587E+00   -0.10166E-03  5272   0.218E+01    0.615E-01
DAV:   2    -0.325180690173E+04   -0.45059E+00   -0.45073E+00  3432   0.773E-01    0.233E-01
DAV:   3    -0.325181530568E+04   -0.84040E-02   -0.85330E-02  4632   0.137E-01    0.189E-01
DAV:   4    -0.325181554139E+04   -0.23571E-03   -0.27819E-03  4488   0.223E-02    0.155E-01
DAV:   5    -0.325181553124E+04    0.10156E-04   -0.19448E-04  4200   0.600E-03    0.110E-01
DAV:   6    -0.325181549894E+04    0.32293E-04   -0.42608E-05  3824   0.445E-03    0.342E-02
DAV:   7    -0.325181549863E+04    0.31365E-06   -0.11107E-05  3816   0.212E-03    0.252E-02
DAV:   8    -0.325181549853E+04    0.10007E-06   -0.56784E-07  3600   0.535E-04    0.164E-02
DAV:   9    -0.325181549805E+04    0.48340E-06   -0.41212E-07  3104   0.473E-04    0.359E-03
DAV:  10    -0.325181549770E+04    0.34590E-06   -0.99124E-08  2088   0.218E-04    0.276E-03
DAV:  11    -0.325181549771E+04   -0.44383E-08   -0.12755E-08  1960   0.874E-05
   12 T=     7. E= -.33238149E+04 F= -.33244883E+04 E0= -.33244883E+04  EK= 0.67339E+00 SP= 0.00E+00 SK= 0.00E+00
       N       E                     dE             d eps       ncg     rms          rms(c)
DAV:   1    -0.325202203333E+04   -0.20654E+00   -0.15587E-03  5176   0.181E+01    0.219E-01
DAV:   2    -0.325210970235E+04   -0.87669E-01   -0.87881E-01  3552   0.437E-01    0.145E-01
DAV:   3    -0.325211153038E+04   -0.18280E-02   -0.20475E-02  4848   0.803E-02    0.105E-01
DAV:   4    -0.325211145233E+04    0.78051E-04   -0.31708E-04  4608   0.122E-02    0.746E-02
DAV:   5    -0.325211141438E+04    0.37954E-04   -0.57637E-05  4120   0.545E-03    0.427E-02
DAV:   6    -0.325211139979E+04    0.14585E-04   -0.53806E-05  3912   0.519E-03    0.102E-02
DAV:   7    -0.325211140141E+04   -0.16206E-05   -0.12680E-05  3800   0.225E-03    0.988E-03
DAV:   8    -0.325211140152E+04   -0.10994E-06   -0.31939E-07  2896   0.444E-04    0.743E-03
DAV:   9    -0.325211140165E+04   -0.13171E-06   -0.74899E-07  2808   0.526E-04    0.268E-03
DAV:  10    -0.325211140171E+04   -0.55312E-07   -0.98543E-08  2176   0.233E-04
   13 T=     9. E= -.33238461E+04 F= -.33247834E+04 E0= -.33247834E+04  EK= 0.93726E+00 SP= 0.00E+00 SK= 0.00E+00
       N       E                     dE             d eps       ncg     rms          rms(c)
DAV:   1    -0.325228518336E+04   -0.17378E+00   -0.14422E-02  4472   0.451E+00    0.145E-01
DAV:   2    -0.325229436573E+04   -0.91824E-02   -0.93442E-02  3784   0.186E-01    0.128E-01
DAV:   3    -0.325229432377E+04    0.41962E-04   -0.12882E-03  4544   0.231E-02    0.959E-02
DAV:   4    -0.325229419507E+04    0.12870E-03   -0.49476E-04  4208   0.138E-02    0.426E-02
DAV:   5    -0.325229419490E+04    0.16458E-06   -0.79577E-05  3880   0.589E-03    0.304E-02
DAV:   6    -0.325229419286E+04    0.20404E-05   -0.76328E-06  3912   0.188E-03    0.165E-02
DAV:   7    -0.325229419309E+04   -0.22099E-06   -0.44162E-06  3760   0.141E-03    0.389E-03
DAV:   8    -0.325229419332E+04   -0.23399E-06   -0.80020E-07  2808   0.564E-04    0.252E-03
DAV:   9    -0.325229419344E+04   -0.12128E-06   -0.14768E-07  2376   0.264E-04    0.141E-03
DAV:  10    -0.325229419352E+04   -0.83455E-07   -0.50804E-08  1984   0.173E-04
   14 T=    11. E= -.33238644E+04 F= -.33249649E+04 E0= -.33249649E+04  EK= 0.11005E+01 SP= 0.00E+00 SK= 0.00E+00
       N       E                     dE             d eps       ncg     rms          rms(c)
DAV:   1    -0.325208752022E+04    0.20667E+00   -0.36207E-02  3888   0.306E+00    0.165E-01
DAV:   2    -0.325209348381E+04   -0.59636E-02   -0.61863E-02  3800   0.160E-01    0.132E-01
DAV:   3    -0.325209337768E+04    0.10612E-03   -0.62440E-04  4080   0.181E-02    0.962E-02
DAV:   4    -0.325209326059E+04    0.11709E-03   -0.39023E-04  3968   0.122E-02    0.443E-02
DAV:   5    -0.325209325892E+04    0.16727E-05   -0.90247E-05  4016   0.595E-03    0.257E-02
DAV:   6    -0.325209325801E+04    0.91255E-06   -0.86420E-06  4008   0.198E-03    0.139E-02
DAV:   7    -0.325209325839E+04   -0.38659E-06   -0.23805E-06  3480   0.102E-03    0.463E-03
DAV:   8    -0.325209325864E+04   -0.24663E-06   -0.27310E-07  2800   0.382E-04    0.210E-03
DAV:   9    -0.325209325876E+04   -0.12408E-06   -0.60293E-08  2040   0.191E-04    0.699E-04
DAV:  10    -0.325209325881E+04   -0.44602E-07   -0.28224E-08  1968   0.123E-04
   15 T=     9. E= -.33238477E+04 F= -.33247628E+04 E0= -.33247628E+04  EK= 0.91509E+00 SP= 0.00E+00 SK= 0.00E+00
       N       E                     dE             d eps       ncg     rms          rms(c)
DAV:   1    -0.325174731002E+04    0.34595E+00   -0.64572E-02  3872   0.359E+00    0.164E-01
DAV:   2    -0.325175353161E+04   -0.62216E-02   -0.64360E-02  3688   0.162E-01    0.124E-01
DAV:   3    -0.325175345708E+04    0.74521E-04   -0.72636E-04  4104   0.192E-02    0.877E-02
DAV:   4    -0.325175336908E+04    0.88009E-04   -0.29836E-04  3944   0.110E-02    0.394E-02
DAV:   5    -0.325175336809E+04    0.98623E-06   -0.75909E-05  3968   0.527E-03    0.211E-02
DAV:   6    -0.325175336783E+04    0.26026E-06   -0.74279E-06  4112   0.180E-03    0.123E-02
DAV:   7    -0.325175336802E+04   -0.19136E-06   -0.92438E-07  3184   0.668E-04    0.447E-03
DAV:   8    -0.325175336805E+04   -0.28784E-07   -0.27181E-07  2856   0.376E-04
   16 T=     6. E= -.33238174E+04 F= -.33244221E+04 E0= -.33244221E+04  EK= 0.60467E+00 SP= 0.00E+00 SK= 0.00E+00
       N       E                     dE             d eps       ncg     rms          rms(c)
DAV:   1    -0.325171297478E+04    0.40393E-01   -0.40349E-02  4024   0.470E+00    0.133E-01
DAV:   2    -0.325171757976E+04   -0.46050E-02   -0.47502E-02  3752   0.137E-01    0.116E-01
DAV:   3    -0.325171749301E+04    0.86752E-04   -0.53393E-04  4112   0.165E-02    0.837E-02
DAV:   4    -0.325171739674E+04    0.96270E-04   -0.41869E-04  3960   0.126E-02    0.312E-02
DAV:   5    -0.325171739948E+04   -0.27422E-05   -0.68068E-05  3824   0.523E-03    0.223E-02
DAV:   6    -0.325171739857E+04    0.90907E-06   -0.58392E-06  3880   0.160E-03    0.127E-02
DAV:   7    -0.325171739825E+04    0.32340E-06   -0.10501E-06  3016   0.766E-04    0.334E-03
DAV:   8    -0.325171739813E+04    0.11559E-06   -0.25234E-07  2640   0.344E-04    0.155E-03
DAV:   9    -0.325171739810E+04    0.33484E-07   -0.69742E-08  2056   0.196E-04
   17 T=     6. E= -.33238120E+04 F= -.33243860E+04 E0= -.33243860E+04  EK= 0.57397E+00 SP= 0.00E+00 SK= 0.00E+00
       N       E                     dE             d eps       ncg     rms          rms(c)
DAV:   1    -0.325206110880E+04   -0.34371E+00   -0.16618E-02  4144   0.422E+00    0.116E-01
DAV:   2    -0.325206431413E+04   -0.32053E-02   -0.32825E-02  3888   0.112E-01    0.108E-01
DAV:   3    -0.325206422412E+04    0.90004E-04   -0.30475E-04  3984   0.126E-02    0.812E-02
DAV:   4    -0.325206412712E+04    0.97002E-04   -0.45782E-04  3976   0.131E-02    0.313E-02
DAV:   5    -0.325206413026E+04   -0.31419E-05   -0.74381E-05  3760   0.562E-03    0.244E-02
DAV:   6    -0.325206412863E+04    0.16305E-05   -0.69970E-06  3888   0.166E-03    0.154E-02
DAV:   7    -0.325206412794E+04    0.69181E-06   -0.20264E-06  3504   0.111E-03    0.354E-03
DAV:   8    -0.325206412792E+04    0.23007E-07   -0.67623E-07  2768   0.512E-04
   18 T=     9. E= -.33238385E+04 F= -.33247334E+04 E0= -.33247334E+04  EK= 0.89483E+00 SP= 0.00E+00 SK= 0.00E+00
       N       E                     dE             d eps       ncg     rms          rms(c)
DAV:   1    -0.325240274267E+04   -0.33861E+00   -0.17074E-02  4128   0.395E+00    0.132E-01
DAV:   2    -0.325240678096E+04   -0.40383E-02   -0.41134E-02  3880   0.129E-01    0.118E-01
DAV:   3    -0.325240669155E+04    0.89415E-04   -0.36703E-04  4000   0.142E-02    0.887E-02
DAV:   4    -0.325240659385E+04    0.97700E-04   -0.51873E-04  3992   0.142E-02    0.355E-02
DAV:   5    -0.325240659795E+04   -0.41057E-05   -0.84459E-05  3728   0.614E-03    0.274E-02
DAV:   6    -0.325240659579E+04    0.21699E-05   -0.76593E-06  3944   0.175E-03    0.175E-02
DAV:   7    -0.325240659564E+04    0.14376E-06   -0.36325E-06  3704   0.137E-03    0.409E-03
DAV:   8    -0.325240659583E+04   -0.18587E-06   -0.80164E-07  2816   0.569E-04    0.249E-03
DAV:   9    -0.325240659587E+04   -0.47366E-07   -0.95972E-08  2072   0.231E-04
   19 T=    12. E= -.33238633E+04 F= -.33250772E+04 E0= -.33250772E+04  EK= 0.12139E+01 SP= 0.00E+00 SK= 0.00E+00
       N       E                     dE             d eps       ncg     rms          rms(c)
DAV:   1    -0.325237582062E+04    0.30775E-01   -0.28905E-02  4208   0.603E+00    0.169E-01
DAV:   2    -0.325238260072E+04   -0.67801E-02   -0.69187E-02  3848   0.171E-01    0.138E-01
DAV:   3    -0.325238250376E+04    0.96958E-04   -0.59840E-04  3992   0.181E-02    0.102E-01
DAV:   4    -0.325238238662E+04    0.11714E-03   -0.51686E-04  3944   0.148E-02    0.411E-02
DAV:   5    -0.325238239151E+04   -0.48880E-05   -0.10315E-04  3872   0.666E-03    0.280E-02
DAV:   6    -0.325238238985E+04    0.16580E-05   -0.83061E-06  3952   0.194E-03    0.177E-02
DAV:   7    -0.325238239029E+04   -0.43488E-06   -0.34117E-06  3736   0.130E-03    0.444E-03
DAV:   8    -0.325238239050E+04   -0.20966E-06   -0.63965E-07  2816   0.530E-04    0.255E-03
DAV:   9    -0.325238239056E+04   -0.58310E-07   -0.12252E-07  2208   0.253E-04
   20 T=    12. E= -.33238559E+04 F= -.33250547E+04 E0= -.33250547E+04  EK= 0.11989E+01 SP= 0.00E+00 SK= 0.00E+00
       N       E                     dE             d eps       ncg     rms          rms(c)
DAV:   1    -0.325208408579E+04    0.29830E+00   -0.52792E-02  4120   0.558E+00    0.186E-01
DAV:   2    -0.325209882220E+04   -0.14736E-01   -0.14929E-01  3712   0.231E-01    0.139E-01
DAV:   3    -0.325209885546E+04   -0.33255E-04   -0.17014E-03  4360   0.267E-02    0.989E-02
DAV:   4    -0.325209877072E+04    0.84743E-04   -0.26034E-04  3952   0.114E-02    0.445E-02
DAV:   5    -0.325209877019E+04    0.53017E-06   -0.80136E-05  3952   0.574E-03    0.209E-02
DAV:   6    -0.325209877058E+04   -0.39695E-06   -0.60192E-06  3840   0.169E-03    0.141E-02
DAV:   7    -0.325209877105E+04   -0.47180E-06   -0.13526E-06  3600   0.779E-04    0.434E-03
DAV:   8    -0.325209877118E+04   -0.12862E-06   -0.21169E-07  2760   0.344E-04    0.180E-03
DAV:   9    -0.325209877123E+04   -0.43292E-07   -0.10283E-07  2224   0.225E-04
   21 T=    13. E= -.33235235E+04 F= -.33247727E+04 E0= -.33247727E+04  EK= 0.12492E+01 SP= 0.00E+00 SK= 0.00E+00
       N       E                     dE             d eps       ncg     rms          rms(c)
DAV:   1    -0.325186995391E+04    0.22882E+00   -0.57258E-02  3920   0.361E+00    0.148E-01
DAV:   2    -0.325187403971E+04   -0.40858E-02   -0.42507E-02  3736   0.137E-01    0.114E-01
DAV:   3    -0.325187398308E+04    0.56637E-04   -0.50500E-04  4024   0.156E-02    0.789E-02
DAV:   4    -0.325187392915E+04    0.53927E-04   -0.20384E-04  3920   0.947E-03    0.316E-02
DAV:   5    -0.325187393057E+04   -0.14195E-05   -0.44903E-05  3952   0.436E-03    0.156E-02
DAV:   6    -0.325187393052E+04    0.43918E-07   -0.34573E-06  3776   0.129E-03    0.100E-02
DAV:   7    -0.325187393060E+04   -0.72469E-07   -0.75245E-07  3168   0.607E-04
   22 T=    11. E= -.33234790E+04 F= -.33245490E+04 E0= -.33245490E+04  EK= 0.10700E+01 SP= 0.00E+00 SK= 0.00E+00
       N       E                     dE             d eps       ncg     rms          rms(c)
DAV:   1    -0.325203495653E+04   -0.16103E+00   -0.65242E-02  3528   0.737E-01    0.178E-01
DAV:   2    -0.325203772126E+04   -0.27647E-02   -0.29677E-02  3880   0.115E-01    0.119E-01
DAV:   3    -0.325203764359E+04    0.77672E-04   -0.44032E-04  3976   0.145E-02    0.819E-02
DAV:   4    -0.325203759677E+04    0.46819E-04   -0.21176E-04  3952   0.958E-03    0.339E-02
DAV:   5    -0.325203759688E+04   -0.11334E-06   -0.36736E-05  3936   0.410E-03    0.159E-02
DAV:   6    -0.325203759663E+04    0.24753E-06   -0.45049E-06  3768   0.142E-03    0.830E-03
DAV:   7    -0.325203759662E+04    0.93423E-08   -0.38424E-07  2840   0.468E-04
   23 T=    12. E= -.33234920E+04 F= -.33247129E+04 E0= -.33247129E+04  EK= 0.12209E+01 SP= 0.00E+00 SK= 0.00E+00
       N       E                     dE             d eps       ncg     rms          rms(c)
DAV:   1    -0.325239916459E+04   -0.36157E+00   -0.51412E-02  3536   0.569E-01    0.194E-01
DAV:   2    -0.325240310271E+04   -0.39381E-02   -0.41181E-02  3904   0.131E-01    0.135E-01
DAV:   3    -0.325240297552E+04    0.12719E-03   -0.50538E-04  3976   0.161E-02    0.953E-02
DAV:   4    -0.325240288860E+04    0.86915E-04   -0.46615E-04  4040   0.135E-02    0.409E-02
DAV:   5    -0.325240289088E+04   -0.22769E-05   -0.66718E-05  3808   0.553E-03    0.261E-02
DAV:   6    -0.325240288984E+04    0.10364E-05   -0.76290E-06  3912   0.190E-03    0.125E-02
DAV:   7    -0.325240289002E+04   -0.17864E-06   -0.25468E-06  3656   0.106E-03    0.358E-03
DAV:   8    -0.325240289009E+04   -0.70198E-07   -0.22024E-07  2664   0.358E-04
   24 T=    16. E= -.33235208E+04 F= -.33250774E+04 E0= -.33250774E+04  EK= 0.15567E+01 SP= 0.00E+00 SK= 0.00E+00
       N       E                     dE             d eps       ncg     rms          rms(c)
DAV:   1    -0.325254182621E+04   -0.13894E+00   -0.73022E-02  3544   0.562E-01    0.221E-01
DAV:   2    -0.325254729028E+04   -0.54641E-02   -0.57512E-02  3888   0.156E-01    0.155E-01
DAV:   3    -0.325254712220E+04    0.16808E-03   -0.71380E-04  3976   0.193E-02    0.110E-01
DAV:   4    -0.325254699704E+04    0.12516E-03   -0.66649E-04  4008   0.159E-02    0.475E-02
DAV:   5    -0.325254700255E+04   -0.55083E-05   -0.10203E-04  3872   0.678E-03    0.305E-02
DAV:   6    -0.325254700153E+04    0.10204E-05   -0.10235E-05  3904   0.225E-03    0.154E-02
DAV:   7    -0.325254700148E+04    0.42302E-07   -0.92754E-06  4240   0.188E-03    0.462E-03
DAV:   8    -0.325254700168E+04   -0.19946E-06   -0.95820E-07  2904   0.730E-04    0.265E-03
DAV:   9    -0.325254700183E+04   -0.14118E-06   -0.28428E-07  2632   0.339E-04    0.116E-03
DAV:  10    -0.325254700186E+04   -0.33673E-07   -0.83340E-08  2160   0.209E-04
   25 T=    17. E= -.33235293E+04 F= -.33252202E+04 E0= -.33252202E+04  EK= 0.16908E+01 SP= 0.00E+00 SK= 0.00E+00
       N       E                     dE             d eps       ncg     rms          rms(c)
DAV:   1    -0.325233526179E+04    0.21174E+00   -0.12297E-01  3464   0.711E-01    0.226E-01
DAV:   2    -0.325234117499E+04   -0.59132E-02   -0.63083E-02  3776   0.166E-01    0.156E-01
DAV:   3    -0.325234102008E+04    0.15491E-03   -0.84751E-04  4008   0.212E-02    0.109E-01
DAV:   4    -0.325234089683E+04    0.12325E-03   -0.63726E-04  3976   0.159E-02    0.474E-02
DAV:   5    -0.325234090351E+04   -0.66742E-05   -0.11949E-04  3920   0.725E-03    0.282E-02
DAV:   6    -0.325234090173E+04    0.17734E-05   -0.11635E-05  3936   0.244E-03    0.148E-02
DAV:   7    -0.325234090101E+04    0.72416E-06   -0.11068E-05  4088   0.204E-03    0.500E-03
DAV:   8    -0.325234090128E+04   -0.26982E-06   -0.12473E-06  3112   0.807E-04    0.255E-03
DAV:   9    -0.325234090136E+04   -0.80647E-07   -0.16012E-07  2480   0.292E-04
   26 T=    15. E= -.33235088E+04 F= -.33250123E+04 E0= -.33250123E+04  EK= 0.15036E+01 SP= 0.00E+00 SK= 0.00E+00
       N       E                     dE             d eps       ncg     rms          rms(c)
DAV:   1    -0.325208249668E+04    0.25840E+00   -0.14353E-01  3448   0.939E-01    0.197E-01
DAV:   2    -0.325208718223E+04   -0.46856E-02   -0.50637E-02  3720   0.150E-01    0.137E-01
DAV:   3    -0.325208707952E+04    0.10271E-03   -0.74527E-04  4008   0.196E-02    0.939E-02
DAV:   4    -0.325208699518E+04    0.84343E-04   -0.39472E-04  3976   0.127E-02    0.391E-02
DAV:   5    -0.325208699785E+04   -0.26684E-05   -0.83553E-05  3920   0.585E-03    0.205E-02
DAV:   6    -0.325208699632E+04    0.15296E-05   -0.10903E-05  4272   0.225E-03    0.118E-02
DAV:   7    -0.325208699625E+04    0.61234E-07   -0.24185E-06  3560   0.102E-03    0.417E-03
DAV:   8    -0.325208699626E+04   -0.16589E-08   -0.35137E-07  2784   0.421E-04
   27 T=    13. E= -.33234848E+04 F= -.33247567E+04 E0= -.33247567E+04  EK= 0.12719E+01 SP= 0.00E+00 SK= 0.00E+00
       N       E                     dE             d eps       ncg     rms          rms(c)
DAV:   1    -0.325213445490E+04   -0.47459E-01   -0.10904E-01  3464   0.658E-01    0.187E-01
DAV:   2    -0.325213787804E+04   -0.34231E-02   -0.37224E-02  3792   0.129E-01    0.129E-01
DAV:   3    -0.325213779032E+04    0.87726E-04   -0.57487E-04  4016   0.169E-02    0.887E-02
DAV:   4    -0.325213772577E+04    0.64551E-04   -0.24805E-04  3952   0.105E-02    0.362E-02
DAV:   5    -0.325213772608E+04   -0.31343E-06   -0.59138E-05  3936   0.495E-03    0.164E-02
DAV:   6    -0.325213772557E+04    0.51437E-06   -0.68358E-06  3768   0.181E-03    0.107E-02
DAV:   7    -0.325213772553E+04    0.31709E-07   -0.95818E-07  3632   0.675E-04
   28 T=    13. E= -.33234870E+04 F= -.33248060E+04 E0= -.33248060E+04  EK= 0.13190E+01 SP= 0.00E+00 SK= 0.00E+00
       N       E                     dE             d eps       ncg     rms          rms(c)
DAV:   1    -0.325245608237E+04   -0.31836E+00   -0.66951E-02  3448   0.777E-01    0.189E-01
DAV:   2    -0.325246042301E+04   -0.43406E-02   -0.45453E-02  3872   0.138E-01    0.139E-01
DAV:   3    -0.325246030561E+04    0.11739E-03   -0.57124E-04  3968   0.171E-02    0.994E-02
DAV:   4    -0.325246020907E+04    0.96540E-04   -0.41032E-04  3968   0.132E-02    0.426E-02
DAV:   5    -0.325246020912E+04   -0.49142E-07   -0.77860E-05  3896   0.589E-03    0.249E-02
DAV:   6    -0.325246020772E+04    0.14042E-05   -0.81848E-06  3888   0.199E-03    0.139E-02
DAV:   7    -0.325246020756E+04    0.16105E-06   -0.22867E-06  3688   0.103E-03    0.418E-03
DAV:   8    -0.325246020753E+04    0.26252E-07   -0.27586E-07  2736   0.402E-04
   29 T=    16. E= -.33235126E+04 F= -.33251279E+04 E0= -.33251279E+04  EK= 0.16153E+01 SP= 0.00E+00 SK= 0.00E+00
       N       E                     dE             d eps       ncg     rms          rms(c)
DAV:   1    -0.325267633302E+04   -0.21613E+00   -0.69940E-02  3520   0.645E-01    0.210E-01
DAV:   2    -0.325268160268E+04   -0.52697E-02   -0.54931E-02  3888   0.153E-01    0.150E-01
DAV:   3    -0.325268147521E+04    0.12748E-03   -0.66169E-04  3968   0.186E-02    0.107E-01
DAV:   4    -0.325268136735E+04    0.10785E-03   -0.49865E-04  4072   0.143E-02    0.476E-02
DAV:   5    -0.325268136931E+04   -0.19539E-05   -0.91685E-05  3912   0.656E-03    0.278E-02
DAV:   6    -0.325268136805E+04    0.12604E-05   -0.89937E-06  3912   0.213E-03    0.151E-02
DAV:   7    -0.325268136793E+04    0.11495E-06   -0.53997E-06  3920   0.144E-03    0.447E-03
DAV:   8    -0.325268136810E+04   -0.17055E-06   -0.52665E-07  2832   0.553E-04    0.232E-03
DAV:   9    -0.325268136820E+04   -0.93627E-07   -0.97881E-08  2184   0.242E-04
   30 T=    18. E= -.33235291E+04 F= -.33253492E+04 E0= -.33253492E+04  EK= 0.18201E+01 SP= 0.00E+00 SK= 0.00E+00
       N       E                     dE             d eps       ncg     rms          rms(c)
DAV:   1    -0.325255438685E+04    0.12698E+00   -0.11189E-01  3536   0.662E-01    0.226E-01
DAV:   2    -0.325256006763E+04   -0.56808E-02   -0.60165E-02  3872   0.163E-01    0.156E-01
DAV:   3    -0.325255995466E+04    0.11297E-03   -0.83449E-04  3968   0.207E-02    0.111E-01
DAV:   4    -0.325255985635E+04    0.98306E-04   -0.44316E-04  4056   0.138E-02    0.504E-02
DAV:   5    -0.325255985958E+04   -0.32243E-05   -0.98257E-05  3896   0.685E-03    0.251E-02
DAV:   6    -0.325255985833E+04    0.12528E-05   -0.10966E-05  4096   0.233E-03    0.150E-02
DAV:   7    -0.325255985806E+04    0.26164E-06   -0.60070E-06  3808   0.149E-03    0.480E-03
DAV:   8    -0.325255985834E+04   -0.27251E-06   -0.64606E-07  2936   0.613E-04    0.227E-03
DAV:   9    -0.325255985841E+04   -0.76630E-07   -0.11961E-07  2192   0.268E-04
   31 T=    19. E= -.33233842E+04 F= -.33252282E+04 E0= -.33252282E+04  EK= 0.18441E+01 SP= 0.00E+00 SK= 0.00E+00
       N       E                     dE             d eps       ncg     rms          rms(c)
DAV:   1    -0.325223642162E+04    0.32344E+00   -0.14752E-01  3400   0.576E-01    0.217E-01
DAV:   2    -0.325224096250E+04   -0.45409E-02   -0.49576E-02  3736   0.150E-01    0.142E-01
DAV:   3    -0.325224089905E+04    0.63448E-04   -0.81579E-04  3992   0.200E-02    0.975E-02
DAV:   4    -0.325224084220E+04    0.56845E-04   -0.24381E-04  3960   0.106E-02    0.448E-02
DAV:   5    -0.325224084333E+04   -0.11214E-05   -0.63098E-05  3936   0.546E-03    0.178E-02
DAV:   6    -0.325224084265E+04    0.67933E-06   -0.10018E-05  3872   0.214E-03    0.117E-02
DAV:   7    -0.325224084264E+04    0.48749E-08   -0.20072E-06  3624   0.935E-04    0.550E-03
DAV:   8    -0.325224084279E+04   -0.14744E-06   -0.26318E-07  2800   0.407E-04    0.178E-03
DAV:   9    -0.325224084282E+04   -0.34139E-07   -0.64151E-08  2072   0.207E-04
   32 T=    16. E= -.33233526E+04 F= -.33249095E+04 E0= -.33249095E+04  EK= 0.15568E+01 SP= 0.00E+00 SK= 0.00E+00
       N       E                     dE             d eps       ncg     rms          rms(c)
DAV:   1    -0.325210494778E+04    0.13590E+00   -0.13538E-01  3400   0.440E-01    0.203E-01
DAV:   2    -0.325210807016E+04   -0.31224E-02   -0.35521E-02  3744   0.128E-01    0.130E-01
DAV:   3    -0.325210799932E+04    0.70836E-04   -0.68065E-04  4008   0.182E-02    0.886E-02
DAV:   4    -0.325210795826E+04    0.41056E-04   -0.20600E-04  3968   0.966E-03    0.394E-02
DAV:   5    -0.325210795799E+04    0.27112E-06   -0.39772E-05  3928   0.435E-03    0.145E-02
DAV:   6    -0.325210795762E+04    0.37187E-06   -0.73457E-06  3888   0.181E-03    0.864E-03
DAV:   7    -0.325210795759E+04    0.26863E-07   -0.91487E-07  3312   0.662E-04
   33 T=    14. E= -.33233438E+04 F= -.33247761E+04 E0= -.33247761E+04  EK= 0.14323E+01 SP= 0.00E+00 SK= 0.00E+00
       N       E                     dE             d eps       ncg     rms          rms(c)
DAV:   1    -0.325228900225E+04   -0.18104E+00   -0.80615E-02  3432   0.545E-01    0.195E-01
DAV:   2    -0.325229282458E+04   -0.38223E-02   -0.41108E-02  3896   0.134E-01    0.138E-01
DAV:   3    -0.325229272443E+04    0.10015E-03   -0.59979E-04  3976   0.173E-02    0.971E-02
DAV:   4    -0.325229265404E+04    0.70388E-04   -0.32971E-04  3960   0.118E-02    0.437E-02
DAV:   5    -0.325229265338E+04    0.66354E-06   -0.57428E-05  3928   0.525E-03    0.219E-02
DAV:   6    -0.325229265245E+04    0.92325E-06   -0.78103E-06  3880   0.192E-03    0.113E-02
DAV:   7    -0.325229265240E+04    0.57480E-07   -0.17821E-06  3552   0.871E-04    0.364E-03
DAV:   8    -0.325229265238E+04    0.14756E-07   -0.19842E-07  2624   0.339E-04
   34 T=    16. E= -.33233615E+04 F= -.33249593E+04 E0= -.33249593E+04  EK= 0.15978E+01 SP= 0.00E+00 SK= 0.00E+00
       N       E                     dE             d eps       ncg     rms          rms(c)
DAV:   1    -0.325253332532E+04   -0.24067E+00   -0.62926E-02  3584   0.523E-01    0.196E-01
DAV:   2    -0.325253785210E+04   -0.45268E-02   -0.47499E-02  3880   0.144E-01    0.140E-01
DAV:   3    -0.325253774667E+04    0.10543E-03   -0.59528E-04  3968   0.175E-02    0.997E-02
DAV:   4    -0.325253766236E+04    0.84317E-04   -0.37999E-04  3984   0.125E-02    0.456E-02
DAV:   5    -0.325253766322E+04   -0.85760E-06   -0.66371E-05  3912   0.566E-03    0.245E-02
DAV:   6    -0.325253766269E+04    0.52231E-06   -0.69217E-06  3904   0.186E-03    0.127E-02
DAV:   7    -0.325253766274E+04   -0.42812E-07   -0.30378E-06  3744   0.109E-03    0.404E-03
DAV:   8    -0.325253766285E+04   -0.11141E-06   -0.30543E-07  2720   0.423E-04    0.204E-03
DAV:   9    -0.325253766292E+04   -0.69573E-07   -0.58885E-08  2096   0.191E-04
   35 T=    18. E= -.33233817E+04 F= -.33252022E+04 E0= -.33252022E+04  EK= 0.18205E+01 SP= 0.00E+00 SK= 0.00E+00
       N       E                     dE             d eps       ncg     rms          rms(c)
DAV:   1    -0.325253866552E+04   -0.10027E-02   -0.70363E-02  3568   0.225E+00    0.194E-01
DAV:   2    -0.325254425806E+04   -0.55925E-02   -0.58443E-02  3816   0.162E-01    0.144E-01
DAV:   3    -0.325254416151E+04    0.96555E-04   -0.70509E-04  3984   0.193E-02    0.103E-01
DAV:   4    -0.325254406802E+04    0.93489E-04   -0.38465E-04  3968   0.125E-02    0.479E-02
DAV:   5    -0.325254406955E+04   -0.15265E-05   -0.80972E-05  3912   0.625E-03    0.240E-02
DAV:   6    -0.325254406918E+04    0.36439E-06   -0.79908E-06  4232   0.200E-03    0.139E-02
DAV:   7    -0.325254406909E+04    0.93918E-07   -0.38781E-06  3752   0.120E-03    0.482E-03
DAV:   8    -0.325254406934E+04   -0.24680E-06   -0.44157E-07  2792   0.510E-04    0.209E-03
DAV:   9    -0.325254406942E+04   -0.81578E-07   -0.88591E-08  2096   0.232E-04
   36 T=    18. E= -.33233803E+04 F= -.33252063E+04 E0= -.33252063E+04  EK= 0.18260E+01 SP= 0.00E+00 SK= 0.00E+00
       N       E                     dE             d eps       ncg     rms          rms(c)
DAV:   1    -0.325232598803E+04    0.21808E+00   -0.90836E-02  3408   0.116E+00    0.192E-01
DAV:   2    -0.325233067356E+04   -0.46855E-02   -0.50063E-02  3712   0.151E-01    0.128E-01
DAV:   3    -0.325233063631E+04    0.37251E-04   -0.66360E-04  3960   0.187E-02    0.882E-02
DAV:   4    -0.325233058198E+04    0.54328E-04   -0.19581E-04  3960   0.960E-03    0.429E-02
DAV:   5    -0.325233058277E+04   -0.79403E-06   -0.66330E-05  3936   0.570E-03    0.165E-02
DAV:   6    -0.325233058209E+04    0.68313E-06   -0.10631E-05  3856   0.222E-03    0.123E-02
DAV:   7    -0.325233058204E+04    0.47701E-07   -0.14883E-06  3472   0.830E-04    0.852E-03
DAV:   8    -0.325233058216E+04   -0.11639E-06   -0.37689E-07  2848   0.431E-04    0.321E-03
DAV:   9    -0.325233058220E+04   -0.43743E-07   -0.18962E-07  2480   0.305E-04
   37 T=    16. E= -.33233601E+04 F= -.33249908E+04 E0= -.33249908E+04  EK= 0.16307E+01 SP= 0.00E+00 SK= 0.00E+00
       N       E                     dE             d eps       ncg     rms          rms(c)
DAV:   1    -0.325219215065E+04    0.13843E+00   -0.10576E-01  3392   0.412E-01    0.197E-01
DAV:   2    -0.325219533531E+04   -0.31847E-02   -0.35566E-02  3720   0.128E-01    0.116E-01
DAV:   3    -0.325219531038E+04    0.24930E-04   -0.56235E-04  3984   0.169E-02    0.786E-02
DAV:   4    -0.325219527843E+04    0.31942E-04   -0.12291E-04  3952   0.778E-03    0.373E-02
DAV:   5    -0.325219527845E+04   -0.12122E-07   -0.39058E-05  3952   0.440E-03    0.127E-02
DAV:   6    -0.325219527793E+04    0.51971E-06   -0.69686E-06  3856   0.177E-03    0.969E-03
DAV:   7    -0.325219527792E+04    0.88330E-08   -0.81313E-07  3304   0.618E-04
   38 T=    15. E= -.33233454E+04 F= -.33248543E+04 E0= -.33248543E+04  EK= 0.15089E+01 SP= 0.00E+00 SK= 0.00E+00
       N       E                     dE             d eps       ncg     rms          rms(c)
DAV:   1    -0.325235061420E+04   -0.15534E+00   -0.90125E-02  3416   0.416E-01    0.210E-01
DAV:   2    -0.325235402295E+04   -0.34088E-02   -0.37371E-02  3776   0.128E-01    0.129E-01
DAV:   3    -0.325235395837E+04    0.64581E-04   -0.56821E-04  3992   0.171E-02    0.895E-02
DAV:   4    -0.325235391107E+04    0.47302E-04   -0.18175E-04  3960   0.935E-03    0.436E-02
DAV:   5    -0.325235390927E+04    0.17969E-05   -0.48442E-05  3936   0.492E-03    0.168E-02
DAV:   6    -0.325235390906E+04    0.21489E-06   -0.62706E-06  3840   0.174E-03    0.120E-02
DAV:   7    -0.325235390891E+04    0.14635E-06   -0.10013E-06  3648   0.665E-04    0.572E-03
DAV:   8    -0.325235390881E+04    0.10218E-06   -0.36954E-07  2832   0.427E-04    0.144E-03
DAV:   9    -0.325235390880E+04    0.44238E-08   -0.55473E-08  2056   0.191E-04
   39 T=    17. E= -.33233543E+04 F= -.33250129E+04 E0= -.33250129E+04  EK= 0.16586E+01 SP= 0.00E+00 SK= 0.00E+00
       N       E                     dE             d eps       ncg     rms          rms(c)
DAV:   1    -0.325267195282E+04   -0.31804E+00   -0.78798E-02  3432   0.448E-01    0.215E-01
DAV:   2    -0.325267642065E+04   -0.44678E-02   -0.47261E-02  3880   0.142E-01    0.139E-01
DAV:   3    -0.325267631544E+04    0.10521E-03   -0.63287E-04  3976   0.184E-02    0.988E-02
DAV:   4    -0.325267623846E+04    0.76980E-04   -0.30830E-04  3984   0.117E-02    0.496E-02
DAV:   5    -0.325267623601E+04    0.24541E-05   -0.66058E-05  3928   0.573E-03    0.231E-02
DAV:   6    -0.325267623578E+04    0.22806E-06   -0.77836E-06  3944   0.203E-03    0.124E-02
DAV:   7    -0.325267623554E+04    0.23955E-06   -0.27830E-06  3600   0.108E-03    0.510E-03
DAV:   8    -0.325267623559E+04   -0.50990E-07   -0.71901E-07  3064   0.567E-04
   40 T=    20. E= -.33233758E+04 F= -.33253365E+04 E0= -.33253365E+04  EK= 0.19606E+01 SP= 0.00E+00 SK= 0.00E+00
       N       E                     dE             d eps       ncg     rms          rms(c)
DAV:   1    -0.325284286040E+04   -0.16662E+00   -0.10305E-01  3480   0.497E-01    0.221E-01
DAV:   2    -0.325284832339E+04   -0.54630E-02   -0.58179E-02  3856   0.159E-01    0.154E-01
DAV:   3    -0.325284818698E+04    0.13641E-03   -0.80801E-04  3976   0.208E-02    0.110E-01
DAV:   4    -0.325284807975E+04    0.10723E-03   -0.47613E-04  4016   0.143E-02    0.529E-02
DAV:   5    -0.325284808138E+04   -0.16250E-05   -0.10552E-04  3928   0.712E-03    0.265E-02
DAV:   6    -0.325284808097E+04    0.41036E-06   -0.11469E-05  3960   0.244E-03    0.145E-02
DAV:   7    -0.325284808046E+04    0.50636E-06   -0.62460E-06  3904   0.156E-03    0.563E-03
DAV:   8    -0.325284808075E+04   -0.28560E-06   -0.10059E-06  3168   0.719E-04    0.223E-03
DAV:   9    -0.325284808082E+04   -0.72119E-07   -0.77242E-08  2128   0.248E-04
   41 T=    25. E= -.33230716E+04 F= -.33255105E+04 E0= -.33255105E+04  EK= 0.24389E+01 SP= 0.00E+00 SK= 0.00E+00
       N       E                     dE             d eps       ncg     rms          rms(c)
DAV:   1    -0.325270692346E+04    0.14116E+00   -0.13977E-01  3408   0.506E-01    0.230E-01
DAV:   2    -0.325271306630E+04   -0.61428E-02   -0.66012E-02  3768   0.169E-01    0.158E-01
DAV:   3    -0.325271291875E+04    0.14755E-03   -0.95761E-04  3984   0.224E-02    0.113E-01
DAV:   4    -0.325271279938E+04    0.11937E-03   -0.50355E-04  3976   0.145E-02    0.537E-02
DAV:   5    -0.325271280036E+04   -0.98508E-06   -0.12002E-04  3936   0.745E-03    0.253E-02
DAV:   6    -0.325271279981E+04    0.54963E-06   -0.14297E-05  4176   0.265E-03    0.137E-02
DAV:   7    -0.325271279932E+04    0.49174E-06   -0.50013E-06  3728   0.141E-03    0.612E-03
DAV:   8    -0.325271279959E+04   -0.26872E-06   -0.10843E-06  3120   0.713E-04    0.202E-03
DAV:   9    -0.325271279965E+04   -0.57087E-07   -0.74319E-08  2072   0.222E-04
   42 T=    23. E= -.33230549E+04 F= -.33253776E+04 E0= -.33253776E+04  EK= 0.23227E+01 SP= 0.00E+00 SK= 0.00E+00
       N       E                     dE             d eps       ncg     rms          rms(c)
DAV:   1    -0.325249253947E+04    0.22026E+00   -0.19047E-01  3416   0.509E-01    0.233E-01
DAV:   2    -0.325249765276E+04   -0.51133E-02   -0.56531E-02  3776   0.159E-01    0.151E-01
DAV:   3    -0.325249754896E+04    0.10380E-03   -0.93919E-04  3984   0.219E-02    0.105E-01
DAV:   4    -0.325249746635E+04    0.82611E-04   -0.33629E-04  3984   0.122E-02    0.466E-02
DAV:   5    -0.325249746819E+04   -0.18413E-05   -0.94026E-05  3928   0.635E-03    0.186E-02
DAV:   6    -0.325249746686E+04    0.13330E-05   -0.13766E-05  3904   0.251E-03    0.117E-02
DAV:   7    -0.325249746681E+04    0.43554E-07   -0.23608E-06  3672   0.103E-03    0.576E-03
DAV:   8    -0.325249746687E+04   -0.59037E-07   -0.36916E-07  2848   0.456E-04
   43 T=    21. E= -.33230325E+04 F= -.33251641E+04 E0= -.33251641E+04  EK= 0.21315E+01 SP= 0.00E+00 SK= 0.00E+00
       N       E                     dE             d eps       ncg     rms          rms(c)
DAV:   1    -0.325252592779E+04   -0.28461E-01   -0.15393E-01  3432   0.471E-01    0.232E-01
DAV:   2    -0.325253030842E+04   -0.43806E-02   -0.48183E-02  3848   0.145E-01    0.150E-01
DAV:   3    -0.325253019823E+04    0.11019E-03   -0.80821E-04  3976   0.202E-02    0.105E-01
DAV:   4    -0.325253012384E+04    0.74389E-04   -0.27816E-04  3984   0.114E-02    0.477E-02
DAV:   5    -0.325253012263E+04    0.12178E-05   -0.77288E-05  3912   0.585E-03    0.182E-02
DAV:   6    -0.325253012206E+04    0.56854E-06   -0.97124E-06  3872   0.218E-03    0.120E-02
DAV:   7    -0.325253012195E+04    0.10701E-06   -0.16941E-06  3704   0.880E-04    0.524E-03
DAV:   8    -0.325253012192E+04    0.30836E-07   -0.35360E-07  2840   0.453E-04
   44 T=    22. E= -.33230333E+04 F= -.33251974E+04 E0= -.33251974E+04  EK= 0.21642E+01 SP= 0.00E+00 SK= 0.00E+00
       N       E                     dE             d eps       ncg     rms          rms(c)
DAV:   1    -0.325279681149E+04   -0.26669E+00   -0.11032E-01  3632   0.498E-01    0.229E-01
DAV:   2    -0.325280192478E+04   -0.51133E-02   -0.54500E-02  3896   0.154E-01    0.154E-01
DAV:   3    -0.325280179604E+04    0.12874E-03   -0.80613E-04  3976   0.201E-02    0.110E-01
DAV:   4    -0.325280170319E+04    0.92851E-04   -0.34544E-04  4072   0.125E-02    0.535E-02
DAV:   5    -0.325280169911E+04    0.40791E-05   -0.82024E-05  3920   0.622E-03    0.238E-02
DAV:   6    -0.325280169858E+04    0.53049E-06   -0.10682E-05  4024   0.229E-03    0.136E-02
DAV:   7    -0.325280169845E+04    0.13549E-06   -0.24391E-06  3680   0.104E-03    0.574E-03
DAV:   8    -0.325280169850E+04   -0.56767E-07   -0.70530E-07  3024   0.593E-04
   45 T=    24. E= -.33230543E+04 F= -.33254687E+04 E0= -.33254687E+04  EK= 0.24144E+01 SP= 0.00E+00 SK= 0.00E+00
       N       E                     dE             d eps       ncg     rms          rms(c)
DAV:   1    -0.325299710672E+04   -0.19541E+00   -0.11276E-01  3592   0.687E-01    0.235E-01
DAV:   2    -0.325300327071E+04   -0.61640E-02   -0.65151E-02  3864   0.169E-01    0.166E-01
DAV:   3    -0.325300311470E+04    0.15600E-03   -0.91412E-04  3984   0.215E-02    0.118E-01
DAV:   4    -0.325300299822E+04    0.11648E-03   -0.49977E-04  4048   0.145E-02    0.558E-02
DAV:   5    -0.325300299734E+04    0.87857E-06   -0.95390E-05  3904   0.680E-03    0.279E-02
DAV:   6    -0.325300299700E+04    0.33855E-06   -0.11835E-05  3936   0.246E-03    0.146E-02
DAV:   7    -0.325300299693E+04    0.71479E-07   -0.49715E-06  3944   0.143E-03    0.539E-03
DAV:   8    -0.325300299717E+04   -0.24019E-06   -0.75266E-07  2992   0.641E-04    0.230E-03
DAV:   9    -0.325300299724E+04   -0.67899E-07   -0.95675E-08  2168   0.257E-04
   46 T=    26. E= -.33230689E+04 F= -.33256690E+04 E0= -.33256690E+04  EK= 0.26001E+01 SP= 0.00E+00 SK= 0.00E+00
       N       E                     dE             d eps       ncg     rms          rms(c)
DAV:   1    -0.325290953458E+04    0.93463E-01   -0.14067E-01  3528   0.581E-01    0.242E-01
DAV:   2    -0.325291595882E+04   -0.64242E-02   -0.68498E-02  3792   0.173E-01    0.165E-01
DAV:   3    -0.325291582206E+04    0.13676E-03   -0.10024E-03  4008   0.226E-02    0.117E-01
DAV:   4    -0.325291571470E+04    0.10736E-03   -0.45185E-04  3992   0.138E-02    0.566E-02
DAV:   5    -0.325291571347E+04    0.12293E-05   -0.98214E-05  3904   0.700E-03    0.251E-02
DAV:   6    -0.325291571340E+04    0.62573E-07   -0.13101E-05  4176   0.254E-03    0.141E-02
DAV:   7    -0.325291571294E+04    0.46386E-06   -0.47794E-06  3712   0.140E-03    0.620E-03
DAV:   8    -0.325291571322E+04   -0.27682E-06   -0.10604E-06  3248   0.730E-04    0.208E-03
DAV:   9    -0.325291571326E+04   -0.44383E-07   -0.86779E-08  2152   0.241E-04
   47 T=    25. E= -.33230608E+04 F= -.33255803E+04 E0= -.33255803E+04  EK= 0.25195E+01 SP= 0.00E+00 SK= 0.00E+00
       N       E                     dE             d eps       ncg     rms          rms(c)
DAV:   1    -0.325265444813E+04    0.26127E+00   -0.17316E-01  3448   0.475E-01    0.240E-01
DAV:   2    -0.325265976104E+04   -0.53129E-02   -0.58055E-02  3736   0.159E-01    0.149E-01
DAV:   3    -0.325265968246E+04    0.78575E-04   -0.93271E-04  3992   0.215E-02    0.105E-01
DAV:   4    -0.325265961549E+04    0.66972E-04   -0.29049E-04  3976   0.113E-02    0.504E-02
DAV:   5    -0.325265961378E+04    0.17040E-05   -0.65908E-05  3920   0.580E-03    0.189E-02
DAV:   6    -0.325265961322E+04    0.56687E-06   -0.12142E-05  4008   0.238E-03    0.115E-02
DAV:   7    -0.325265961309E+04    0.13218E-06   -0.21278E-06  3624   0.976E-04    0.631E-03
DAV:   8    -0.325265961314E+04   -0.56651E-07   -0.49289E-07  2880   0.520E-04
   48 T=    23. E= -.33230399E+04 F= -.33253227E+04 E0= -.33253227E+04  EK= 0.22827E+01 SP= 0.00E+00 SK= 0.00E+00
       N       E                     dE             d eps       ncg     rms          rms(c)
DAV:   1    -0.325253909637E+04    0.12052E+00   -0.16437E-01  3448   0.439E-01    0.242E-01
DAV:   2    -0.325254340953E+04   -0.43132E-02   -0.48685E-02  3824   0.147E-01    0.148E-01
DAV:   3    -0.325254331238E+04    0.97141E-04   -0.84903E-04  3984   0.206E-02    0.103E-01
DAV:   4    -0.325254325444E+04    0.57948E-04   -0.31386E-04  3976   0.115E-02    0.480E-02
DAV:   5    -0.325254325202E+04    0.24170E-05   -0.47401E-05  3920   0.501E-03    0.192E-02
DAV:   6    -0.325254325148E+04    0.53667E-06   -0.10971E-05  4120   0.224E-03    0.105E-02
DAV:   7    -0.325254325138E+04    0.10128E-06   -0.19475E-06  3608   0.921E-04    0.501E-03
DAV:   8    -0.325254325135E+04    0.30690E-07   -0.46055E-07  2824   0.504E-04
   49 T=    22. E= -.33230311E+04 F= -.33252050E+04 E0= -.33252050E+04  EK= 0.21739E+01 SP= 0.00E+00 SK= 0.00E+00
       N       E                     dE             d eps       ncg     rms          rms(c)
DAV:   1    -0.325269181814E+04   -0.14857E+00   -0.11492E-01  3560   0.442E-01    0.233E-01
DAV:   2    -0.325269658639E+04   -0.47682E-02   -0.52292E-02  3880   0.151E-01    0.153E-01
DAV:   3    -0.325269646121E+04    0.12518E-03   -0.81155E-04  3976   0.204E-02    0.109E-01
DAV:   4    -0.325269637854E+04    0.82672E-04   -0.38588E-04  3992   0.130E-02    0.529E-02
DAV:   5    -0.325269637518E+04    0.33608E-05   -0.67379E-05  3928   0.594E-03    0.243E-02
DAV:   6    -0.325269637411E+04    0.10720E-05   -0.11068E-05  3952   0.237E-03    0.129E-02
DAV:   7    -0.325269637377E+04    0.33870E-06   -0.37969E-06  3752   0.125E-03    0.503E-03
DAV:   8    -0.325269637376E+04    0.12311E-07   -0.65121E-07  3048   0.601E-04
   50 T=    23. E= -.33230453E+04 F= -.33253575E+04 E0= -.33253575E+04  EK= 0.23122E+01 SP= 0.00E+00 SK= 0.00E+00
       N       E                     dE             d eps       ncg     rms          rms(c)
DAV:   1    -0.325290730144E+04   -0.21093E+00   -0.93292E-02  3592   0.477E-01    0.224E-01
DAV:   2    -0.325291251138E+04   -0.52099E-02   -0.55841E-02  3896   0.157E-01    0.152E-01
DAV:   3    -0.325291238693E+04    0.12444E-03   -0.78388E-04  3976   0.203E-02    0.109E-01
DAV:   4    -0.325291229542E+04    0.91510E-04   -0.41964E-04  4024   0.135E-02    0.530E-02
DAV:   5    -0.325291229445E+04    0.97044E-06   -0.79243E-05  3928   0.642E-03    0.257E-02
DAV:   6    -0.325291229390E+04    0.55587E-06   -0.10264E-05  3944   0.235E-03    0.137E-02
DAV:   7    -0.325291229356E+04    0.33545E-06   -0.47442E-06  3920   0.139E-03    0.503E-03
DAV:   8    -0.325291229370E+04   -0.13997E-06   -0.71917E-07  3008   0.633E-04    0.207E-03
DAV:   9    -0.325291229373E+04   -0.30603E-07   -0.83885E-08  2120   0.254E-04
   51 T=    31. E= -.33225399E+04 F= -.33255736E+04 E0= -.33255736E+04  EK= 0.30338E+01 SP= 0.00E+00 SK= 0.00E+00
       N       E                     dE             d eps       ncg     rms          rms(c)
DAV:   1    -0.325284610806E+04    0.66186E-01   -0.96553E-02  3664   0.526E-01    0.233E-01
DAV:   2    -0.325285235723E+04   -0.62492E-02   -0.66111E-02  3824   0.171E-01    0.158E-01
DAV:   3    -0.325285223606E+04    0.12117E-03   -0.86351E-04  3976   0.214E-02    0.113E-01
DAV:   4    -0.325285213506E+04    0.10100E-03   -0.41942E-04  3968   0.132E-02    0.568E-02
DAV:   5    -0.325285213359E+04    0.14626E-05   -0.85651E-05  3928   0.669E-03    0.258E-02
DAV:   6    -0.325285213419E+04   -0.59177E-06   -0.10755E-05  4080   0.239E-03    0.137E-02
DAV:   7    -0.325285213386E+04    0.32724E-06   -0.39992E-06  3744   0.127E-03    0.579E-03
DAV:   8    -0.325285213410E+04   -0.24316E-06   -0.10064E-06  3280   0.683E-04    0.219E-03
DAV:   9    -0.325285213416E+04   -0.58033E-07   -0.86981E-08  2208   0.250E-04
   52 T=    30. E= -.33225431E+04 F= -.33255143E+04 E0= -.33255143E+04  EK= 0.29712E+01 SP= 0.00E+00 SK= 0.00E+00
       N       E                     dE             d eps       ncg     rms          rms(c)
DAV:   1    -0.325251531298E+04    0.33682E+00   -0.15613E-01  3472   0.491E-01    0.248E-01
DAV:   2    -0.325252106725E+04   -0.57543E-02   -0.62433E-02  3768   0.168E-01    0.153E-01
DAV:   3    -0.325252100021E+04    0.67036E-04   -0.92273E-04  3968   0.220E-02    0.108E-01
DAV:   4    -0.325252092796E+04    0.72253E-04   -0.29156E-04  3984   0.115E-02    0.526E-02
DAV:   5    -0.325252092734E+04    0.61546E-06   -0.75786E-05  3936   0.635E-03    0.192E-02
DAV:   6    -0.325252092693E+04    0.41780E-06   -0.12117E-05  3960   0.238E-03    0.131E-02
DAV:   7    -0.325252092673E+04    0.19300E-06   -0.20126E-06  3640   0.937E-04    0.760E-03
DAV:   8    -0.325252092682E+04   -0.84139E-07   -0.58020E-07  2880   0.527E-04
   53 T=    27. E= -.33225163E+04 F= -.33251840E+04 E0= -.33251840E+04  EK= 0.26677E+01 SP= 0.00E+00 SK= 0.00E+00
       N       E                     dE             d eps       ncg     rms          rms(c)
DAV:   1    -0.325230684011E+04    0.21409E+00   -0.16432E-01  3440   0.439E-01    0.250E-01
DAV:   2    -0.325231100082E+04   -0.41607E-02   -0.47150E-02  3760   0.147E-01    0.142E-01
DAV:   3    -0.325231095190E+04    0.48917E-04   -0.82680E-04  3976   0.204E-02    0.995E-02
DAV:   4    -0.325231090697E+04    0.44936E-04   -0.18795E-04  3960   0.948E-03    0.473E-02
DAV:   5    -0.325231090633E+04    0.63096E-06   -0.51601E-05  3912   0.520E-03    0.151E-02
DAV:   6    -0.325231090566E+04    0.67038E-06   -0.10275E-05  3920   0.215E-03    0.111E-02
DAV:   7    -0.325231090558E+04    0.79788E-07   -0.15476E-06  3608   0.832E-04    0.688E-03
DAV:   8    -0.325231090556E+04    0.21930E-07   -0.27460E-07  2800   0.372E-04
   54 T=    25. E= -.33225000E+04 F= -.33249744E+04 E0= -.33249744E+04  EK= 0.24743E+01 SP= 0.00E+00 SK= 0.00E+00
       N       E                     dE             d eps       ncg     rms          rms(c)
DAV:   1    -0.325245640454E+04   -0.14550E+00   -0.11350E-01  3584   0.433E-01    0.233E-01
DAV:   2    -0.325246069450E+04   -0.42900E-02   -0.47294E-02  3888   0.144E-01    0.143E-01
DAV:   3    -0.325246061165E+04    0.82860E-04   -0.77567E-04  3976   0.198E-02    0.102E-01
DAV:   4    -0.325246055267E+04    0.58971E-04   -0.21398E-04  3968   0.101E-02    0.530E-02
DAV:   5    -0.325246054765E+04    0.50230E-05   -0.60067E-05  3912   0.568E-03    0.184E-02
DAV:   6    -0.325246054768E+04   -0.25102E-07   -0.11538E-05  3944   0.229E-03    0.135E-02
DAV:   7    -0.325246054746E+04    0.21562E-06   -0.14646E-06  3624   0.821E-04    0.850E-03
DAV:   8    -0.325246054738E+04    0.83091E-07   -0.75500E-07  3024   0.569E-04
   55 T=    26. E= -.33225134E+04 F= -.33251238E+04 E0= -.33251238E+04  EK= 0.26104E+01 SP= 0.00E+00 SK= 0.00E+00
       N       E                     dE             d eps       ncg     rms          rms(c)
DAV:   1    -0.325277151561E+04   -0.31097E+00   -0.95591E-02  3600   0.492E-01    0.229E-01
DAV:   2    -0.325277693126E+04   -0.54157E-02   -0.58325E-02  3856   0.160E-01    0.154E-01
DAV:   3    -0.325277679953E+04    0.13173E-03   -0.87478E-04  3968   0.211E-02    0.110E-01
DAV:   4    -0.325277670728E+04    0.92248E-04   -0.33923E-04  3968   0.123E-02    0.587E-02
DAV:   5    -0.325277670110E+04    0.61786E-05   -0.82938E-05  3904   0.652E-03    0.247E-02
DAV:   6    -0.325277670136E+04   -0.25096E-06   -0.14376E-05  4176   0.265E-03    0.140E-02
DAV:   7    -0.325277670109E+04    0.26840E-06   -0.29770E-06  3720   0.114E-03    0.805E-03
DAV:   8    -0.325277670122E+04   -0.13568E-06   -0.13469E-06  3488   0.738E-04    0.215E-03
DAV:   9    -0.325277670125E+04   -0.26193E-07   -0.90183E-08  2192   0.248E-04
   56 T=    29. E= -.33225369E+04 F= -.33254391E+04 E0= -.33254391E+04  EK= 0.29022E+01 SP= 0.00E+00 SK= 0.00E+00
       N       E                     dE             d eps       ncg     rms          rms(c)
DAV:   1    -0.325290531363E+04   -0.12861E+00   -0.11094E-01  3440   0.540E-01    0.231E-01
DAV:   2    -0.325291189067E+04   -0.65770E-02   -0.70470E-02  3784   0.175E-01    0.164E-01
DAV:   3    -0.325291171220E+04    0.17846E-03   -0.10206E-03  4000   0.230E-02    0.117E-01
DAV:   4    -0.325291157947E+04    0.13274E-03   -0.47435E-04  3976   0.140E-02    0.618E-02
DAV:   5    -0.325291157242E+04    0.70468E-05   -0.11952E-04  3912   0.759E-03    0.279E-02
DAV:   6    -0.325291157331E+04   -0.89184E-06   -0.18052E-05  4256   0.295E-03    0.144E-02
DAV:   7    -0.325291157293E+04    0.38536E-06   -0.43055E-06  3760   0.134E-03    0.847E-03
DAV:   8    -0.325291157315E+04   -0.22043E-06   -0.17140E-06  3544   0.810E-04    0.258E-03
DAV:   9    -0.325291157323E+04   -0.87544E-07   -0.10014E-07  2200   0.264E-04
   57 T=    31. E= -.33225420E+04 F= -.33255725E+04 E0= -.33255725E+04  EK= 0.30305E+01 SP= 0.00E+00 SK= 0.00E+00
       N       E                     dE             d eps       ncg     rms          rms(c)
DAV:   1    -0.325277995033E+04    0.13162E+00   -0.14699E-01  3384   0.518E-01    0.230E-01
DAV:   2    -0.325278643146E+04   -0.64811E-02   -0.69806E-02  3776   0.173E-01    0.156E-01
DAV:   3    -0.325278627998E+04    0.15148E-03   -0.10382E-03  3968   0.234E-02    0.112E-01
DAV:   4    -0.325278615939E+04    0.12059E-03   -0.42204E-04  3984   0.132E-02    0.582E-02
DAV:   5    -0.325278615202E+04    0.73621E-05   -0.12275E-04  3912   0.763E-03    0.241E-02
DAV:   6    -0.325278615268E+04   -0.65858E-06   -0.17657E-05  4168   0.285E-03    0.139E-02
DAV:   7    -0.325278615250E+04    0.18155E-06   -0.25525E-06  3736   0.107E-03    0.871E-03
DAV:   8    -0.325278615254E+04   -0.36671E-07   -0.11893E-06  3104   0.703E-04    0.297E-03
DAV:   9    -0.325278615261E+04   -0.76485E-07   -0.15399E-07  2456   0.314E-04
   58 T=    29. E= -.33225239E+04 F= -.33254454E+04 E0= -.33254454E+04  EK= 0.29214E+01 SP= 0.00E+00 SK= 0.00E+00
       N       E                     dE             d eps       ncg     rms          rms(c)
DAV:   1    -0.325266255411E+04    0.12360E+00   -0.17923E-01  3424   0.474E-01    0.241E-01
DAV:   2    -0.325266787948E+04   -0.53254E-02   -0.58105E-02  3760   0.159E-01    0.149E-01
DAV:   3    -0.325266776032E+04    0.11916E-03   -0.92426E-04  3992   0.220E-02    0.105E-01
DAV:   4    -0.325266767445E+04    0.85867E-04   -0.31732E-04  3976   0.117E-02    0.514E-02
DAV:   5    -0.325266767113E+04    0.33232E-05   -0.87177E-05  3936   0.637E-03    0.189E-02
DAV:   6    -0.325266767110E+04    0.25422E-07   -0.12117E-05  3960   0.235E-03    0.121E-02
DAV:   7    -0.325266767099E+04    0.11714E-06   -0.17446E-06  3616   0.887E-04    0.696E-03
DAV:   8    -0.325266767096E+04    0.27809E-07   -0.62662E-07  2856   0.550E-04
   59 T=    28. E= -.33225048E+04 F= -.33253250E+04 E0= -.33253250E+04  EK= 0.28202E+01 SP= 0.00E+00 SK= 0.00E+00
       N       E                     dE             d eps       ncg     rms          rms(c)
DAV:   1    -0.325283259902E+04   -0.16493E+00   -0.16332E-01  3464   0.462E-01    0.253E-01
DAV:   2    -0.325283745974E+04   -0.48607E-02   -0.53406E-02  3840   0.153E-01    0.152E-01
DAV:   3    -0.325283734937E+04    0.11037E-03   -0.85861E-04  3976   0.212E-02    0.109E-01
DAV:   4    -0.325283727167E+04    0.77701E-04   -0.25964E-04  3968   0.113E-02    0.536E-02
DAV:   5    -0.325283726687E+04    0.48014E-05   -0.84988E-05  3920   0.642E-03    0.191E-02
DAV:   6    -0.325283726677E+04    0.94180E-07   -0.11646E-05  3872   0.234E-03    0.146E-02
DAV:   7    -0.325283726655E+04    0.22523E-06   -0.16720E-06  3712   0.864E-04    0.804E-03
DAV:   8    -0.325283726645E+04    0.10106E-06   -0.82912E-07  3040   0.648E-04    0.188E-03
DAV:   9    -0.325283726646E+04   -0.14072E-07   -0.14606E-07  2296   0.295E-04
   60 T=    30. E= -.33225092E+04 F= -.33254931E+04 E0= -.33254931E+04  EK= 0.29839E+01 SP= 0.00E+00 SK= 0.00E+00
       N       E                     dE             d eps       ncg     rms          rms(c)
DAV:   1    -0.325322145518E+04   -0.38419E+00   -0.13556E-01  3488   0.509E-01    0.253E-01
DAV:   2    -0.325322744921E+04   -0.59940E-02   -0.64641E-02  3880   0.167E-01    0.162E-01
DAV:   3    -0.325322731929E+04    0.12991E-03   -0.98266E-04  3968   0.224E-02    0.117E-01
DAV:   4    -0.325322722211E+04    0.97180E-04   -0.33801E-04  3976   0.127E-02    0.606E-02
DAV:   5    -0.325322721389E+04    0.82274E-05   -0.95852E-05  3920   0.699E-03    0.240E-02
DAV:   6    -0.325322721362E+04    0.26461E-06   -0.15337E-05  3936   0.271E-03    0.159E-02
DAV:   7    -0.325322721328E+04    0.34497E-06   -0.24537E-06  3672   0.106E-03    0.865E-03
DAV:   8    -0.325322721327E+04    0.76980E-08   -0.15673E-06  3448   0.840E-04    0.218E-03
DAV:   9    -0.325322721329E+04   -0.25218E-07   -0.18140E-07  2480   0.327E-04
   61 T=    37. E= -.33222539E+04 F= -.33258825E+04 E0= -.33258825E+04  EK= 0.36286E+01 SP= 0.00E+00 SK= 0.00E+00
       N       E                     dE             d eps       ncg     rms          rms(c)
DAV:   1    -0.325345106825E+04   -0.22385E+00   -0.13691E-01  3472   0.578E-01    0.264E-01
DAV:   2    -0.325345863761E+04   -0.75694E-02   -0.80734E-02  3792   0.187E-01    0.177E-01
DAV:   3    -0.325345846756E+04    0.17005E-03   -0.11267E-03  3976   0.242E-02    0.127E-01
DAV:   4    -0.325345834089E+04    0.12667E-03   -0.51642E-04  4016   0.150E-02    0.650E-02
DAV:   5    -0.325345833560E+04    0.52897E-05   -0.11133E-04  3920   0.753E-03    0.302E-02
DAV:   6    -0.325345833547E+04    0.13887E-06   -0.16908E-05  4008   0.294E-03    0.159E-02
DAV:   7    -0.325345833508E+04    0.38608E-06   -0.53480E-06  3896   0.150E-03    0.731E-03
DAV:   8    -0.325345833533E+04   -0.24901E-06   -0.17886E-06  3560   0.885E-04    0.272E-03
DAV:   9    -0.325345833539E+04   -0.59459E-07   -0.17070E-07  2560   0.329E-04
   62 T=    39. E= -.33222763E+04 F= -.33261140E+04 E0= -.33261140E+04  EK= 0.38377E+01 SP= 0.00E+00 SK= 0.00E+00
       N       E                     dE             d eps       ncg     rms          rms(c)
DAV:   1    -0.325328580969E+04    0.17253E+00   -0.19981E-01  3472   0.584E-01    0.282E-01
DAV:   2    -0.325329386550E+04   -0.80558E-02   -0.86245E-02  3776   0.195E-01    0.180E-01
DAV:   3    -0.325329371198E+04    0.15352E-03   -0.12356E-03  3968   0.254E-02    0.129E-01
DAV:   4    -0.325329359397E+04    0.11801E-03   -0.52843E-04  3992   0.152E-02    0.626E-02
DAV:   5    -0.325329359144E+04    0.25307E-05   -0.10709E-04  3920   0.746E-03    0.268E-02
DAV:   6    -0.325329359147E+04   -0.30501E-07   -0.15414E-05  4032   0.276E-03    0.147E-02
DAV:   7    -0.325329359115E+04    0.32553E-06   -0.41156E-06  3736   0.132E-03    0.660E-03
DAV:   8    -0.325329359136E+04   -0.21813E-06   -0.12399E-06  3320   0.768E-04    0.216E-03
DAV:   9    -0.325329359142E+04   -0.54657E-07   -0.11212E-07  2264   0.275E-04
   63 T=    37. E= -.33222602E+04 F= -.33259501E+04 E0= -.33259501E+04  EK= 0.36899E+01 SP= 0.00E+00 SK= 0.00E+00
       N       E                     dE             d eps       ncg     rms          rms(c)
DAV:   1    -0.325296307099E+04    0.33052E+00   -0.25482E-01  3400   0.544E-01    0.287E-01
DAV:   2    -0.325296971776E+04   -0.66468E-02   -0.73260E-02  3736   0.181E-01    0.175E-01
DAV:   3    -0.325296959082E+04    0.12694E-03   -0.12478E-03  3992   0.250E-02    0.122E-01
DAV:   4    -0.325296950706E+04    0.83759E-04   -0.42069E-04  3952   0.136E-02    0.566E-02
DAV:   5    -0.325296950466E+04    0.24010E-05   -0.76565E-05  3920   0.629E-03    0.206E-02
DAV:   6    -0.325296950404E+04    0.61661E-06   -0.15418E-05  4056   0.263E-03    0.116E-02
DAV:   7    -0.325296950394E+04    0.10588E-06   -0.22875E-06  3648   0.101E-03    0.613E-03
DAV:   8    -0.325296950400E+04   -0.62413E-07   -0.47931E-07  2848   0.506E-04
   64 T=    34. E= -.33222343E+04 F= -.33256266E+04 E0= -.33256266E+04  EK= 0.33923E+01 SP= 0.00E+00 SK= 0.00E+00
       N       E                     dE             d eps       ncg     rms          rms(c)
DAV:   1    -0.325285725106E+04    0.11225E+00   -0.19843E-01  3528   0.497E-01    0.271E-01
DAV:   2    -0.325286266578E+04   -0.54147E-02   -0.61284E-02  3864   0.166E-01    0.170E-01
DAV:   3    -0.325286251972E+04    0.14606E-03   -0.11455E-03  3976   0.238E-02    0.120E-01
DAV:   4    -0.325286244002E+04    0.79702E-04   -0.41515E-04  3976   0.134E-02    0.570E-02
DAV:   5    -0.325286243628E+04    0.37378E-05   -0.70680E-05  3904   0.608E-03    0.220E-02
DAV:   6    -0.325286243557E+04    0.71009E-06   -0.15395E-05  4056   0.264E-03    0.122E-02
DAV:   7    -0.325286243531E+04    0.26186E-06   -0.28967E-06  3680   0.112E-03    0.585E-03
DAV:   8    -0.325286243531E+04   -0.38272E-08   -0.64880E-07  3040   0.576E-04
   65 T=    33. E= -.33222324E+04 F= -.33255196E+04 E0= -.33255196E+04  EK= 0.32871E+01 SP= 0.00E+00 SK= 0.00E+00
       N       E                     dE             d eps       ncg     rms          rms(c)
DAV:   1    -0.325299760775E+04   -0.13517E+00   -0.12866E-01  3728   0.508E-01    0.248E-01
DAV:   2    -0.325300342070E+04   -0.58129E-02   -0.63900E-02  3872   0.168E-01    0.167E-01
DAV:   3    -0.325300326684E+04    0.15386E-03   -0.10524E-03  3976   0.227E-02    0.119E-01
DAV:   4    -0.325300317022E+04    0.96612E-04   -0.41173E-04  4008   0.136E-02    0.604E-02
DAV:   5    -0.325300316470E+04    0.55284E-05   -0.85799E-05  3928   0.666E-03    0.256E-02
DAV:   6    -0.325300316396E+04    0.73624E-06   -0.15202E-05  4064   0.270E-03    0.143E-02
DAV:   7    -0.325300316367E+04    0.29341E-06   -0.35080E-06  3728   0.121E-03    0.648E-03
DAV:   8    -0.325300316374E+04   -0.75772E-07   -0.81456E-07  3168   0.653E-04
   66 T=    34. E= -.33222539E+04 F= -.33256597E+04 E0= -.33256597E+04  EK= 0.34058E+01 SP= 0.00E+00 SK= 0.00E+00
       N       E                     dE             d eps       ncg     rms          rms(c)
DAV:   1    -0.325307259233E+04   -0.69429E-01   -0.11214E-01  3688   0.546E-01    0.245E-01
DAV:   2    -0.325307925368E+04   -0.66614E-02   -0.71417E-02  3816   0.177E-01    0.175E-01
DAV:   3    -0.325307905894E+04    0.19474E-03   -0.10619E-03  3984   0.231E-02    0.126E-01
DAV:   4    -0.325307893080E+04    0.12814E-03   -0.54520E-04  3960   0.152E-02    0.635E-02
DAV:   5    -0.325307892763E+04    0.31769E-05   -0.97878E-05  3928   0.713E-03    0.300E-02
DAV:   6    -0.325307892764E+04   -0.10172E-07   -0.15466E-05  3968   0.281E-03    0.143E-02
DAV:   7    -0.325307892745E+04    0.18641E-06   -0.57914E-06  3888   0.154E-03    0.601E-03
DAV:   8    -0.325307892768E+04   -0.23075E-06   -0.93684E-07  3224   0.697E-04    0.252E-03
DAV:   9    -0.325307892776E+04   -0.78333E-07   -0.12152E-07  2376   0.288E-04
   67 T=    35. E= -.33222689E+04 F= -.33257343E+04 E0= -.33257343E+04  EK= 0.34654E+01 SP= 0.00E+00 SK= 0.00E+00
       N       E                     dE             d eps       ncg     rms          rms(c)
DAV:   1    -0.325285948168E+04    0.21945E+00   -0.12270E-01  3576   0.534E-01    0.244E-01
DAV:   2    -0.325286626361E+04   -0.67819E-02   -0.72125E-02  3792   0.177E-01    0.170E-01
DAV:   3    -0.325286608940E+04    0.17421E-03   -0.10420E-03  3968   0.232E-02    0.122E-01
DAV:   4    -0.325286596508E+04    0.12433E-03   -0.50120E-04  3968   0.142E-02    0.619E-02
DAV:   5    -0.325286596165E+04    0.34285E-05   -0.97586E-05  3920   0.707E-03    0.276E-02
DAV:   6    -0.325286596268E+04   -0.10345E-05   -0.13921E-05  4080   0.263E-03    0.137E-02
DAV:   7    -0.325286596235E+04    0.33519E-06   -0.38544E-06  3776   0.126E-03    0.656E-03
DAV:   8    -0.325286596259E+04   -0.24369E-06   -0.11604E-06  3456   0.696E-04    0.226E-03
DAV:   9    -0.325286596264E+04   -0.50437E-07   -0.10194E-07  2264   0.250E-04
   68 T=    33. E= -.33222584E+04 F= -.33255196E+04 E0= -.33255196E+04  EK= 0.32612E+01 SP= 0.00E+00 SK= 0.00E+00
       N       E                     dE             d eps       ncg     rms          rms(c)
DAV:   1    -0.325251348180E+04    0.35248E+00   -0.14678E-01  3424   0.476E-01    0.237E-01
DAV:   2    -0.325251894647E+04   -0.54647E-02   -0.58805E-02  3768   0.160E-01    0.148E-01
DAV:   3    -0.325251886102E+04    0.85449E-04   -0.87361E-04  3984   0.214E-02    0.106E-01
DAV:   4    -0.325251878424E+04    0.76785E-04   -0.27474E-04  3968   0.109E-02    0.529E-02
DAV:   5    -0.325251878156E+04    0.26776E-05   -0.79911E-05  3960   0.638E-03    0.181E-02
DAV:   6    -0.325251878162E+04   -0.55181E-07   -0.11829E-05  3952   0.233E-03    0.128E-02
DAV:   7    -0.325251878150E+04    0.11560E-06   -0.15802E-06  3640   0.848E-04    0.792E-03
DAV:   8    -0.325251878150E+04   -0.37835E-09   -0.56757E-07  2864   0.496E-04
   69 T=    30. E= -.33222339E+04 F= -.33251703E+04 E0= -.33251703E+04  EK= 0.29364E+01 SP= 0.00E+00 SK= 0.00E+00
       N       E                     dE             d eps       ncg     rms          rms(c)
DAV:   1    -0.325239730254E+04    0.12148E+00   -0.14149E-01  3456   0.424E-01    0.234E-01
DAV:   2    -0.325240135288E+04   -0.40503E-02   -0.44855E-02  3776   0.141E-01    0.136E-01
DAV:   3    -0.325240129437E+04    0.58506E-04   -0.69906E-04  3968   0.193E-02    0.973E-02
DAV:   4    -0.325240124231E+04    0.52060E-04   -0.17816E-04  3960   0.919E-03    0.476E-02
DAV:   5    -0.325240123988E+04    0.24331E-05   -0.58504E-05  3952   0.547E-03    0.151E-02
DAV:   6    -0.325240123963E+04    0.24875E-06   -0.95221E-06  3888   0.210E-03    0.125E-02
DAV:   7    -0.325240123950E+04    0.12935E-06   -0.13501E-06  3672   0.773E-04    0.790E-03
DAV:   8    -0.325240123943E+04    0.72978E-07   -0.41407E-07  2832   0.443E-04
   70 T=    29. E= -.33222237E+04 F= -.33250507E+04 E0= -.33250507E+04  EK= 0.28269E+01 SP= 0.00E+00 SK= 0.00E+00
       N       E                     dE             d eps       ncg     rms          rms(c)
DAV:   1    -0.325265823105E+04   -0.25699E+00   -0.10748E-01  3512   0.439E-01    0.227E-01
DAV:   2    -0.325266266945E+04   -0.44384E-02   -0.49060E-02  3784   0.147E-01    0.143E-01
DAV:   3    -0.325266259036E+04    0.79094E-04   -0.76687E-04  3960   0.201E-02    0.104E-01
DAV:   4    -0.325266252461E+04    0.65747E-04   -0.21284E-04  3960   0.101E-02    0.557E-02
DAV:   5    -0.325266251649E+04    0.81200E-05   -0.68566E-05  3920   0.618E-03    0.187E-02
DAV:   6    -0.325266251651E+04   -0.12049E-07   -0.14120E-05  3928   0.252E-03    0.153E-02
DAV:   7    -0.325266251625E+04    0.25907E-06   -0.14467E-06  3672   0.842E-04    0.107E-02
DAV:   8    -0.325266251607E+04    0.17766E-06   -0.10290E-06  3296   0.645E-04    0.351E-03
DAV:   9    -0.325266251607E+04    0.35070E-08   -0.21529E-07  2528   0.339E-04
   71 T=    43. E= -.33210869E+04 F= -.33253104E+04 E0= -.33253104E+04  EK= 0.42235E+01 SP= 0.00E+00 SK= 0.00E+00
       N       E                     dE             d eps       ncg     rms          rms(c)
DAV:   1    -0.325298766001E+04   -0.32514E+00   -0.86702E-02  3504   0.559E-01    0.234E-01
DAV:   2    -0.325299412939E+04   -0.64694E-02   -0.69381E-02  3784   0.174E-01    0.161E-01
DAV:   3    -0.325299400580E+04    0.12359E-03   -0.94881E-04  3976   0.223E-02    0.116E-01
DAV:   4    -0.325299390480E+04    0.10100E-03   -0.31852E-04  3976   0.120E-02    0.658E-02
DAV:   5    -0.325299389209E+04    0.12711E-04   -0.93617E-05  3912   0.712E-03    0.266E-02
DAV:   6    -0.325299389257E+04   -0.47988E-06   -0.20357E-05  3976   0.314E-03    0.158E-02
DAV:   7    -0.325299389233E+04    0.24289E-06   -0.26711E-06  3760   0.113E-03    0.113E-02
DAV:   8    -0.325299389231E+04    0.21653E-07   -0.18875E-06  3648   0.831E-04    0.300E-03
DAV:   9    -0.325299389238E+04   -0.74855E-07   -0.16686E-07  2496   0.334E-04
   72 T=    45. E= -.33211435E+04 F= -.33256409E+04 E0= -.33256409E+04  EK= 0.44974E+01 SP= 0.00E+00 SK= 0.00E+00
       N       E                     dE             d eps       ncg     rms          rms(c)
DAV:   1    -0.325300487520E+04   -0.10983E-01   -0.15329E-01  3440   0.599E-01    0.276E-01
DAV:   2    -0.325301318675E+04   -0.83115E-02   -0.89529E-02  3776   0.199E-01    0.179E-01
DAV:   3    -0.325301301845E+04    0.16830E-03   -0.12640E-03  3968   0.261E-02    0.128E-01
DAV:   4    -0.325301288912E+04    0.12933E-03   -0.47766E-04  3984   0.145E-02    0.693E-02
DAV:   5    -0.325301287990E+04    0.92153E-05   -0.12072E-04  3912   0.803E-03    0.284E-02
DAV:   6    -0.325301288114E+04   -0.12410E-05   -0.21640E-05  4032   0.326E-03    0.163E-02
DAV:   7    -0.325301288089E+04    0.25699E-06   -0.32565E-06  3752   0.121E-03    0.106E-02
DAV:   8    -0.325301288097E+04   -0.80821E-07   -0.18175E-06  3680   0.840E-04    0.287E-03
DAV:   9    -0.325301288106E+04   -0.88898E-07   -0.15766E-07  2528   0.323E-04
   73 T=    46. E= -.33211356E+04 F= -.33256598E+04 E0= -.33256598E+04  EK= 0.45242E+01 SP= 0.00E+00 SK= 0.00E+00
       N       E                     dE             d eps       ncg     rms          rms(c)
DAV:   1    -0.325283283959E+04    0.18004E+00   -0.22275E-01  3408   0.564E-01    0.287E-01
DAV:   2    -0.325284019867E+04   -0.73591E-02   -0.80183E-02  3752   0.191E-01    0.172E-01
DAV:   3    -0.325284007726E+04    0.12141E-03   -0.12248E-03  3968   0.255E-02    0.122E-01
DAV:   4    -0.325283997987E+04    0.97397E-04   -0.39319E-04  3968   0.134E-02    0.598E-02
DAV:   5    -0.325283997694E+04    0.29244E-05   -0.10167E-04  3928   0.722E-03    0.208E-02
DAV:   6    -0.325283997694E+04    0.15280E-08   -0.15764E-05  3952   0.269E-03    0.141E-02
DAV:   7    -0.325283997685E+04    0.90848E-07   -0.19616E-06  3720   0.952E-04    0.858E-03
DAV:   8    -0.325283997690E+04   -0.55792E-07   -0.62831E-07  2888   0.552E-04
   74 T=    44. E= -.33211087E+04 F= -.33254870E+04 E0= -.33254870E+04  EK= 0.43782E+01 SP= 0.00E+00 SK= 0.00E+00
       N       E                     dE             d eps       ncg     rms          rms(c)
DAV:   1    -0.325285497049E+04   -0.14994E-01   -0.21785E-01  3472   0.933E-01    0.272E-01
DAV:   2    -0.325286154391E+04   -0.65734E-02   -0.72346E-02  3760   0.181E-01    0.171E-01
DAV:   3    -0.325286142367E+04    0.12024E-03   -0.11610E-03  3992   0.245E-02    0.117E-01
DAV:   4    -0.325286133085E+04    0.92813E-04   -0.30793E-04  3952   0.122E-02    0.560E-02
DAV:   5    -0.325286132768E+04    0.31765E-05   -0.10539E-04  3936   0.713E-03    0.184E-02
DAV:   6    -0.325286132721E+04    0.46499E-06   -0.15081E-05  3832   0.264E-03    0.145E-02
DAV:   7    -0.325286132714E+04    0.75874E-07   -0.19426E-06  3744   0.935E-04    0.945E-03
DAV:   8    -0.325286132713E+04    0.72177E-08   -0.41209E-07  2848   0.461E-04
   75 T=    44. E= -.33211014E+04 F= -.33255083E+04 E0= -.33255083E+04  EK= 0.44069E+01 SP= 0.00E+00 SK= 0.00E+00
       N       E                     dE             d eps       ncg     rms          rms(c)
DAV:   1    -0.325317494836E+04   -0.31362E+00   -0.16701E-01  3648   0.709E-01    0.270E-01
DAV:   2    -0.325318151092E+04   -0.65626E-02   -0.71968E-02  3816   0.179E-01    0.174E-01
DAV:   3    -0.325318137707E+04    0.13385E-03   -0.11545E-03  4000   0.242E-02    0.122E-01
DAV:   4    -0.325318127664E+04    0.10043E-03   -0.31875E-04  3952   0.126E-02    0.624E-02
DAV:   5    -0.325318126820E+04    0.84380E-05   -0.10498E-04  3912   0.727E-03    0.218E-02
DAV:   6    -0.325318126822E+04   -0.21362E-07   -0.16043E-05  3912   0.273E-03    0.165E-02
DAV:   7    -0.325318126797E+04    0.24847E-06   -0.19092E-06  3736   0.957E-04    0.105E-02
DAV:   8    -0.325318126793E+04    0.42681E-07   -0.10663E-06  3184   0.688E-04    0.295E-03
DAV:   9    -0.325318126793E+04   -0.36525E-08   -0.13944E-07  2360   0.299E-04
   76 T=    47. E= -.33211244E+04 F= -.33258279E+04 E0= -.33258279E+04  EK= 0.47036E+01 SP= 0.00E+00 SK= 0.00E+00
       N       E                     dE             d eps       ncg     rms          rms(c)
DAV:   1    -0.325345717419E+04   -0.27591E+00   -0.15786E-01  3576   0.603E-01    0.288E-01
DAV:   2    -0.325346516721E+04   -0.79930E-02   -0.86786E-02  3824   0.197E-01    0.187E-01
DAV:   3    -0.325346499868E+04    0.16853E-03   -0.13391E-03  3976   0.258E-02    0.134E-01
DAV:   4    -0.325346488054E+04    0.11814E-03   -0.42356E-04  4000   0.141E-02    0.715E-02
DAV:   5    -0.325346486990E+04    0.10639E-04   -0.10995E-04  3920   0.761E-03    0.277E-02
DAV:   6    -0.325346487013E+04   -0.22614E-06   -0.21803E-05  3952   0.318E-03    0.173E-02
DAV:   7    -0.325346486979E+04    0.34293E-06   -0.32781E-06  3752   0.124E-03    0.102E-02
DAV:   8    -0.325346486996E+04   -0.17599E-06   -0.19737E-06  3768   0.934E-04    0.233E-03
DAV:   9    -0.325346486999E+04   -0.31418E-07   -0.18798E-07  2488   0.332E-04
   77 T=    50. E= -.33211470E+04 F= -.33261111E+04 E0= -.33261111E+04  EK= 0.49641E+01 SP= 0.00E+00 SK= 0.00E+00
       N       E                     dE             d eps       ncg     rms          rms(c)
DAV:   1    -0.325336574929E+04    0.99121E-01   -0.18336E-01  3664   0.635E-01    0.301E-01
DAV:   2    -0.325337507376E+04   -0.93245E-02   -0.10055E-01  3816   0.210E-01    0.196E-01
DAV:   3    -0.325337487072E+04    0.20304E-03   -0.15026E-03  3976   0.276E-02    0.141E-01
DAV:   4    -0.325337472707E+04    0.14365E-03   -0.57470E-04  3968   0.158E-02    0.740E-02
DAV:   5    -0.325337471866E+04    0.84148E-05   -0.12615E-04  3896   0.814E-03    0.316E-02
DAV:   6    -0.325337471908E+04   -0.42550E-06   -0.23333E-05  4032   0.336E-03    0.171E-02
DAV:   7    -0.325337471862E+04    0.46461E-06   -0.48780E-06  3800   0.147E-03    0.932E-03
DAV:   8    -0.325337471888E+04   -0.25632E-06   -0.19501E-06  3760   0.930E-04    0.250E-03
DAV:   9    -0.325337471893E+04   -0.50582E-07   -0.15707E-07  2480   0.310E-04
   78 T=    49. E= -.33211416E+04 F= -.33260202E+04 E0= -.33260202E+04  EK= 0.48786E+01 SP= 0.00E+00 SK= 0.00E+00
       N       E                     dE             d eps       ncg     rms          rms(c)
DAV:   1    -0.325297784108E+04    0.39688E+00   -0.23253E-01  3448   0.603E-01    0.295E-01
DAV:   2    -0.325298648051E+04   -0.86394E-02   -0.93072E-02  3808   0.202E-01    0.186E-01
[...]
DAV:   8    -0.322535011165E+04   -0.42317E-06   -0.74307E-06  3912   0.181E-03    0.652E-03
DAV:   9    -0.322535011175E+04   -0.10246E-06   -0.94048E-07  3632   0.701E-04    0.439E-03
DAV:  10    -0.322535011184E+04   -0.90164E-07   -0.26407E-07  2856   0.407E-04
  482 T=   290. E= -.32682741E+04 F= -.32970580E+04 E0= -.32970580E+04  EK= 0.28784E+02 SP= 0.00E+00 SK= 0.00E+00
       N       E                     dE             d eps       ncg     rms          rms(c)
DAV:   1    -0.322428596267E+04    0.10641E+01   -0.23022E+00  3592   0.166E+00    0.915E-01
DAV:   2    -0.322434905246E+04   -0.63090E-01   -0.69342E-01  3848   0.559E-01    0.598E-01
DAV:   3    -0.322434720578E+04    0.18467E-02   -0.12807E-02  3976   0.801E-02    0.415E-01
DAV:   4    -0.322434638541E+04    0.82037E-03   -0.48067E-03  4008   0.454E-02    0.187E-01
DAV:   5    -0.322434638309E+04    0.23159E-05   -0.76019E-04  3872   0.196E-02    0.682E-02
DAV:   6    -0.322434639225E+04   -0.91578E-05   -0.11807E-04  3960   0.749E-03    0.405E-02
DAV:   7    -0.322434639130E+04    0.94793E-06   -0.17057E-05  3904   0.279E-03    0.159E-02
DAV:   8    -0.322434639141E+04   -0.11205E-06   -0.72578E-06  3936   0.177E-03    0.591E-03
DAV:   9    -0.322434639149E+04   -0.79061E-07   -0.87982E-07  3568   0.675E-04
  483 T=   281. E= -.32681900E+04 F= -.32960488E+04 E0= -.32960488E+04  EK= 0.27859E+02 SP= 0.00E+00 SK= 0.00E+00
       N       E                     dE             d eps       ncg     rms          rms(c)
DAV:   1    -0.322332680917E+04    0.10196E+01   -0.22418E+00  3488   0.162E+00    0.900E-01
DAV:   2    -0.322338710398E+04   -0.60295E-01   -0.66391E-01  3816   0.548E-01    0.584E-01
DAV:   3    -0.322338518958E+04    0.19144E-02   -0.11751E-02  3984   0.781E-02    0.408E-01
DAV:   4    -0.322338436586E+04    0.82372E-03   -0.54397E-03  3992   0.470E-02    0.179E-01
DAV:   5    -0.322338436695E+04   -0.10906E-05   -0.71618E-04  3848   0.192E-02    0.695E-02
DAV:   6    -0.322338437291E+04   -0.59640E-05   -0.11925E-04  3960   0.747E-03    0.370E-02
DAV:   7    -0.322338437110E+04    0.18148E-05   -0.18073E-05  3880   0.285E-03    0.149E-02
DAV:   8    -0.322338437081E+04    0.28858E-06   -0.70501E-06  3896   0.173E-03    0.565E-03
DAV:   9    -0.322338437084E+04   -0.27241E-07   -0.84370E-07  3504   0.645E-04
  484 T=   272. E= -.32681281E+04 F= -.32950793E+04 E0= -.32950793E+04  EK= 0.26951E+02 SP= 0.00E+00 SK= 0.00E+00
       N       E                     dE             d eps       ncg     rms          rms(c)
DAV:   1    -0.322336502690E+04    0.19344E-01   -0.21860E+00  3544   0.161E+00    0.943E-01
DAV:   2    -0.322342369164E+04   -0.58665E-01   -0.66003E-01  3840   0.546E-01    0.601E-01
DAV:   3    -0.322342166544E+04    0.20262E-02   -0.13030E-02  3960   0.801E-02    0.417E-01
DAV:   4    -0.322342086661E+04    0.79883E-03   -0.51072E-03  4160   0.456E-02    0.192E-01
DAV:   5    -0.322342086183E+04    0.47880E-05   -0.73180E-04  3840   0.195E-02    0.692E-02
DAV:   6    -0.322342086461E+04   -0.27840E-05   -0.15641E-04  4000   0.812E-03    0.391E-02
DAV:   7    -0.322342086225E+04    0.23589E-05   -0.20802E-05  3848   0.302E-03    0.183E-02
DAV:   8    -0.322342086215E+04    0.96275E-07   -0.68754E-06  3856   0.171E-03    0.504E-03
DAV:   9    -0.322342086216E+04   -0.33760E-08   -0.66665E-07  3328   0.591E-04
  485 T=   272. E= -.32681409E+04 F= -.32951063E+04 E0= -.32951063E+04  EK= 0.26965E+02 SP= 0.00E+00 SK= 0.00E+00
       N       E                     dE             d eps       ncg     rms          rms(c)
DAV:   1    -0.322419973776E+04   -0.77888E+00   -0.20798E+00  3544   0.164E+00    0.931E-01
DAV:   2    -0.322426125255E+04   -0.61515E-01   -0.69170E-01  3872   0.555E-01    0.615E-01
DAV:   3    -0.322425930503E+04    0.19475E-02   -0.13857E-02  3952   0.823E-02    0.434E-01
DAV:   4    -0.322425841157E+04    0.89346E-03   -0.49904E-03  4160   0.455E-02    0.207E-01
DAV:   5    -0.322425838087E+04    0.30691E-04   -0.86785E-04  3840   0.210E-02    0.733E-02
DAV:   6    -0.322425838290E+04   -0.20231E-05   -0.19184E-04  3944   0.900E-03    0.439E-02
DAV:   7    -0.322425838025E+04    0.26494E-05   -0.22804E-05  3856   0.322E-03    0.226E-02
DAV:   8    -0.322425838032E+04   -0.71159E-07   -0.96723E-06  3920   0.196E-03    0.568E-03
DAV:   9    -0.322425838043E+04   -0.10530E-06   -0.81816E-07  3384   0.653E-04    0.381E-03
DAV:  10    -0.322425838046E+04   -0.38563E-07   -0.20940E-07  2672   0.359E-04
  486 T=   280. E= -.32682178E+04 F= -.32959329E+04 E0= -.32959329E+04  EK= 0.27715E+02 SP= 0.00E+00 SK= 0.00E+00
       N       E                     dE             d eps       ncg     rms          rms(c)
DAV:   1    -0.322470066583E+04   -0.44229E+00   -0.20306E+00  3728   0.168E+00    0.915E-01
DAV:   2    -0.322476735906E+04   -0.66693E-01   -0.73923E-01  3840   0.573E-01    0.615E-01
DAV:   3    -0.322476529363E+04    0.20654E-02   -0.13819E-02  3952   0.828E-02    0.434E-01
DAV:   4    -0.322476430360E+04    0.99003E-03   -0.51931E-03  4024   0.469E-02    0.207E-01
DAV:   5    -0.322476427920E+04    0.24398E-04   -0.92160E-04  3864   0.216E-02    0.757E-02
DAV:   6    -0.322476428743E+04   -0.82239E-05   -0.17313E-04  3944   0.872E-03    0.445E-02
DAV:   7    -0.322476428463E+04    0.27946E-05   -0.24066E-05  3880   0.328E-03    0.207E-02
DAV:   8    -0.322476428543E+04   -0.79241E-06   -0.10052E-05  3888   0.205E-03    0.568E-03
DAV:   9    -0.322476428562E+04   -0.19907E-06   -0.91655E-07  3544   0.685E-04    0.422E-03
DAV:  10    -0.322476428576E+04   -0.13244E-06   -0.26751E-07  2736   0.395E-04    0.232E-03
DAV:  11    -0.322476428576E+04   -0.31869E-08   -0.14782E-07  2624   0.295E-04
  487 T=   284. E= -.32682678E+04 F= -.32964274E+04 E0= -.32964274E+04  EK= 0.28160E+02 SP= 0.00E+00 SK= 0.00E+00
       N       E                     dE             d eps       ncg     rms          rms(c)
DAV:   1    -0.322415727788E+04    0.60701E+00   -0.21688E+00  3520   0.169E+00    0.908E-01
DAV:   2    -0.322422196559E+04   -0.64688E-01   -0.71876E-01  3864   0.568E-01    0.586E-01
DAV:   3    -0.322422026538E+04    0.17002E-02   -0.13748E-02  3936   0.820E-02    0.414E-01
DAV:   4    -0.322421944810E+04    0.81728E-03   -0.42404E-03  4096   0.428E-02    0.204E-01
DAV:   5    -0.322421941832E+04    0.29783E-04   -0.85979E-04  3864   0.212E-02    0.686E-02
DAV:   6    -0.322421942578E+04   -0.74607E-05   -0.19272E-04  3912   0.891E-03    0.456E-02
DAV:   7    -0.322421942350E+04    0.22780E-05   -0.18929E-05  3864   0.291E-03    0.256E-02
DAV:   8    -0.322421942405E+04   -0.55472E-06   -0.80011E-06  3888   0.189E-03    0.698E-03
DAV:   9    -0.322421942424E+04   -0.18525E-06   -0.86061E-07  3504   0.692E-04    0.399E-03
DAV:  10    -0.322421942434E+04   -0.96115E-07   -0.16338E-07  2576   0.347E-04
  488 T=   279. E= -.32682221E+04 F= -.32958718E+04 E0= -.32958718E+04  EK= 0.27650E+02 SP= 0.00E+00 SK= 0.00E+00
       N       E                     dE             d eps       ncg     rms          rms(c)
DAV:   1    -0.322326676512E+04    0.95266E+00   -0.24658E+00  3728   0.167E+00    0.957E-01
DAV:   2    -0.322332729347E+04   -0.60528E-01   -0.68567E-01  3840   0.555E-01    0.601E-01
DAV:   3    -0.322332538392E+04    0.19095E-02   -0.14203E-02  3968   0.830E-02    0.420E-01
DAV:   4    -0.322332463381E+04    0.75011E-03   -0.45817E-03  4088   0.442E-02    0.198E-01
DAV:   5    -0.322332462314E+04    0.10672E-04   -0.77583E-04  3856   0.200E-02    0.654E-02
DAV:   6    -0.322332462703E+04   -0.38921E-05   -0.16677E-04  3920   0.843E-03    0.423E-02
DAV:   7    -0.322332462484E+04    0.21925E-05   -0.19299E-05  3848   0.290E-03    0.222E-02
DAV:   8    -0.322332462485E+04   -0.91823E-08   -0.72980E-06  3896   0.176E-03    0.649E-03
DAV:   9    -0.322332462493E+04   -0.83266E-07   -0.66889E-07  3248   0.630E-04
  489 T=   271. E= -.32681299E+04 F= -.32949675E+04 E0= -.32949675E+04  EK= 0.26838E+02 SP= 0.00E+00 SK= 0.00E+00
       N       E                     dE             d eps       ncg     rms          rms(c)
DAV:   1    -0.322335948870E+04   -0.34864E-01   -0.24176E+00  3536   0.163E+00    0.978E-01
DAV:   2    -0.322341724322E+04   -0.57755E-01   -0.65751E-01  3848   0.541E-01    0.609E-01
DAV:   3    -0.322341533692E+04    0.19063E-02   -0.13307E-02  3968   0.810E-02    0.423E-01
DAV:   4    -0.322341456689E+04    0.77003E-03   -0.47926E-03  4064   0.453E-02    0.192E-01
DAV:   5    -0.322341456703E+04   -0.13577E-06   -0.78640E-04  3864   0.199E-02    0.679E-02
DAV:   6    -0.322341456698E+04    0.54424E-07   -0.14501E-04  3944   0.796E-03    0.422E-02
DAV:   7    -0.322341456454E+04    0.24353E-05   -0.21221E-05  3856   0.304E-03    0.181E-02
DAV:   8    -0.322341456430E+04    0.24035E-06   -0.74100E-06  3888   0.178E-03    0.540E-03
DAV:   9    -0.322341456429E+04    0.49477E-08   -0.74747E-07  3512   0.642E-04
  490 T=   272. E= -.32681221E+04 F= -.32950497E+04 E0= -.32950497E+04  EK= 0.26928E+02 SP= 0.00E+00 SK= 0.00E+00
       N       E                     dE             d eps       ncg     rms          rms(c)
DAV:   1    -0.322456785320E+04   -0.11533E+01   -0.22742E+00  3456   0.162E+00    0.982E-01
DAV:   2    -0.322462535629E+04   -0.57503E-01   -0.65528E-01  3864   0.541E-01    0.613E-01
DAV:   3    -0.322462338787E+04    0.19684E-02   -0.14027E-02  3976   0.818E-02    0.423E-01
DAV:   4    -0.322462265779E+04    0.73009E-03   -0.46881E-03  4184   0.445E-02    0.199E-01
DAV:   5    -0.322462265546E+04    0.23271E-05   -0.79918E-04  3904   0.203E-02    0.685E-02
DAV:   6    -0.322462265947E+04   -0.40116E-05   -0.15958E-04  3904   0.828E-03    0.429E-02
DAV:   7    -0.322462265719E+04    0.22834E-05   -0.20885E-05  3840   0.302E-03    0.186E-02
DAV:   8    -0.322462265722E+04   -0.38359E-07   -0.62826E-06  3864   0.170E-03    0.523E-03
DAV:   9    -0.322462265722E+04    0.14552E-09   -0.69431E-07  3488   0.626E-04
  491 T=   295. E= -.32670439E+04 F= -.32962515E+04 E0= -.32962515E+04  EK= 0.29208E+02 SP= 0.00E+00 SK= 0.00E+00
       N       E                     dE             d eps       ncg     rms          rms(c)
DAV:   1    -0.322558891031E+04   -0.96625E+00   -0.22514E+00  3544   0.167E+00    0.969E-01
DAV:   2    -0.322565054797E+04   -0.61638E-01   -0.69172E-01  3872   0.563E-01    0.613E-01
DAV:   3    -0.322564896133E+04    0.15866E-02   -0.13551E-02  3944   0.812E-02    0.425E-01
DAV:   4    -0.322564822309E+04    0.73824E-03   -0.41475E-03  4232   0.436E-02    0.193E-01
DAV:   5    -0.322564824535E+04   -0.22262E-04   -0.88658E-04  3888   0.211E-02    0.672E-02
DAV:   6    -0.322564824484E+04    0.51188E-06   -0.14942E-04  3856   0.821E-03    0.464E-02
DAV:   7    -0.322564824298E+04    0.18547E-05   -0.23259E-05  3856   0.315E-03    0.194E-02
DAV:   8    -0.322564824373E+04   -0.75022E-06   -0.55574E-06  3944   0.168E-03    0.568E-03
DAV:   9    -0.322564824385E+04   -0.11908E-06   -0.74794E-07  3576   0.661E-04    0.394E-03
DAV:  10    -0.322564824390E+04   -0.49913E-07   -0.19615E-07  2640   0.392E-04
  492 T=   304. E= -.32671234E+04 F= -.32972713E+04 E0= -.32972713E+04  EK= 0.30148E+02 SP= 0.00E+00 SK= 0.00E+00
       N       E                     dE             d eps       ncg     rms          rms(c)
DAV:   1    -0.322537162701E+04    0.27662E+00   -0.23497E+00  3696   0.168E+00    0.943E-01
DAV:   2    -0.322543689941E+04   -0.65272E-01   -0.72387E-01  3872   0.575E-01    0.615E-01
DAV:   3    -0.322543513314E+04    0.17663E-02   -0.13692E-02  3952   0.826E-02    0.426E-01
DAV:   4    -0.322543433680E+04    0.79635E-03   -0.47725E-03  4080   0.458E-02    0.192E-01
DAV:   5    -0.322543435004E+04   -0.13243E-04   -0.85643E-04  3880   0.206E-02    0.692E-02
DAV:   6    -0.322543435747E+04   -0.74265E-05   -0.12757E-04  3904   0.770E-03    0.438E-02
DAV:   7    -0.322543435667E+04    0.79651E-06   -0.19743E-05  3880   0.295E-03    0.162E-02
DAV:   8    -0.322543435727E+04   -0.60325E-06   -0.69036E-06  3920   0.177E-03    0.624E-03
DAV:   9    -0.322543435739E+04   -0.11767E-06   -0.96037E-07  3624   0.716E-04    0.412E-03
DAV:  10    -0.322543435748E+04   -0.95082E-07   -0.26215E-07  2760   0.410E-04
  493 T=   302. E= -.32670971E+04 F= -.32970511E+04 E0= -.32970511E+04  EK= 0.29954E+02 SP= 0.00E+00 SK= 0.00E+00
       N       E                     dE             d eps       ncg     rms          rms(c)
DAV:   1    -0.322424666409E+04    0.11877E+01   -0.24638E+00  3488   0.168E+00    0.958E-01
DAV:   2    -0.322431156264E+04   -0.64899E-01   -0.72449E-01  3848   0.570E-01    0.628E-01
DAV:   3    -0.322430947571E+04    0.20869E-02   -0.14241E-02  3960   0.844E-02    0.431E-01
DAV:   4    -0.322430861859E+04    0.85711E-03   -0.52286E-03  4040   0.473E-02    0.191E-01
DAV:   5    -0.322430862509E+04   -0.64905E-05   -0.83443E-04  3872   0.204E-02    0.681E-02
DAV:   6    -0.322430863361E+04   -0.85261E-05   -0.13885E-04  3952   0.790E-03    0.412E-02
DAV:   7    -0.322430863249E+04    0.11210E-05   -0.19609E-05  3888   0.295E-03    0.160E-02
DAV:   8    -0.322430863290E+04   -0.40482E-06   -0.64642E-06  3888   0.171E-03    0.567E-03
DAV:   9    -0.322430863297E+04   -0.73327E-07   -0.83386E-07  3648   0.656E-04
  494 T=   291. E= -.32670287E+04 F= -.32959173E+04 E0= -.32959173E+04  EK= 0.28889E+02 SP= 0.00E+00 SK= 0.00E+00
       N       E                     dE             d eps       ncg     rms          rms(c)
DAV:   1    -0.322325615257E+04    0.10525E+01   -0.23465E+00  3496   0.162E+00    0.948E-01
DAV:   2    -0.322331515088E+04   -0.58998E-01   -0.66248E-01  3840   0.547E-01    0.596E-01
DAV:   3    -0.322331336489E+04    0.17860E-02   -0.12599E-02  3952   0.797E-02    0.414E-01
DAV:   4    -0.322331259597E+04    0.76892E-03   -0.50767E-03  4200   0.464E-02    0.181E-01
DAV:   5    -0.322331260843E+04   -0.12462E-04   -0.79096E-04  3816   0.200E-02    0.679E-02
DAV:   6    -0.322331261009E+04   -0.16537E-05   -0.14286E-04  4048   0.787E-03    0.399E-02
DAV:   7    -0.322331260853E+04    0.15561E-05   -0.20638E-05  3880   0.299E-03    0.156E-02
DAV:   8    -0.322331260857E+04   -0.32975E-07   -0.54218E-06  3928   0.159E-03    0.539E-03
DAV:   9    -0.322331260859E+04   -0.23952E-07   -0.73515E-07  3536   0.613E-04
  495 T=   282. E= -.32669760E+04 F= -.32949112E+04 E0= -.32949112E+04  EK= 0.27935E+02 SP= 0.00E+00 SK= 0.00E+00
       N       E                     dE             d eps       ncg     rms          rms(c)
DAV:   1    -0.322316895240E+04    0.14366E+00   -0.24091E+00  3576   0.162E+00    0.998E-01
DAV:   2    -0.322322637879E+04   -0.57426E-01   -0.65888E-01  3856   0.545E-01    0.631E-01
DAV:   3    -0.322322434324E+04    0.20355E-02   -0.14286E-02  3952   0.829E-02    0.436E-01
DAV:   4    -0.322322357305E+04    0.77019E-03   -0.50363E-03  4176   0.457E-02    0.198E-01
DAV:   5    -0.322322356867E+04    0.43736E-05   -0.81515E-04  3872   0.200E-02    0.684E-02
DAV:   6    -0.322322357143E+04   -0.27546E-05   -0.16240E-04  3928   0.820E-03    0.433E-02
DAV:   7    -0.322322356924E+04    0.21905E-05   -0.20551E-05  3872   0.300E-03    0.197E-02
DAV:   8    -0.322322356933E+04   -0.89349E-07   -0.77980E-06  3872   0.177E-03    0.548E-03
DAV:   9    -0.322322356939E+04   -0.58353E-07   -0.78401E-07  3376   0.640E-04
  496 T=   281. E= -.32669964E+04 F= -.32948106E+04 E0= -.32948106E+04  EK= 0.27814E+02 SP= 0.00E+00 SK= 0.00E+00
       N       E                     dE             d eps       ncg     rms          rms(c)
DAV:   1    -0.322367159760E+04   -0.44803E+00   -0.20406E+00  3816   0.161E+00    0.917E-01
DAV:   2    -0.322373212238E+04   -0.60525E-01   -0.67047E-01  3880   0.544E-01    0.599E-01
DAV:   3    -0.322373047272E+04    0.16497E-02   -0.12541E-02  3960   0.790E-02    0.424E-01
DAV:   4    -0.322372965901E+04    0.81371E-03   -0.42886E-03  4216   0.427E-02    0.197E-01
DAV:   5    -0.322372964909E+04    0.99130E-05   -0.85836E-04  3880   0.208E-02    0.691E-02
DAV:   6    -0.322372965222E+04   -0.31281E-05   -0.14698E-04  3920   0.818E-03    0.463E-02
DAV:   7    -0.322372964965E+04    0.25746E-05   -0.21405E-05  3872   0.307E-03    0.205E-02
DAV:   8    -0.322372964997E+04   -0.32493E-06   -0.86862E-06  3952   0.187E-03    0.575E-03
DAV:   9    -0.322372965013E+04   -0.15827E-06   -0.84689E-07  3480   0.672E-04    0.410E-03
DAV:  10    -0.322372965025E+04   -0.12072E-06   -0.25993E-07  2800   0.407E-04    0.236E-03
DAV:  11    -0.322372965024E+04    0.10987E-07   -0.11896E-07  2504   0.275E-04
  497 T=   285. E= -.32670690E+04 F= -.32953047E+04 E0= -.32953047E+04  EK= 0.28236E+02 SP= 0.00E+00 SK= 0.00E+00
       N       E                     dE             d eps       ncg     rms          rms(c)
DAV:   1    -0.322372105380E+04    0.85964E-02   -0.21388E+00  3680   0.164E+00    0.923E-01
DAV:   2    -0.322378372131E+04   -0.62668E-01   -0.69487E-01  3848   0.555E-01    0.618E-01
DAV:   3    -0.322378165965E+04    0.20617E-02   -0.14029E-02  3952   0.818E-02    0.430E-01
DAV:   4    -0.322378080995E+04    0.84970E-03   -0.45461E-03  4040   0.442E-02    0.206E-01
DAV:   5    -0.322378079504E+04    0.14914E-04   -0.88045E-04  3872   0.212E-02    0.693E-02
DAV:   6    -0.322378080392E+04   -0.88810E-05   -0.16280E-04  3888   0.852E-03    0.455E-02
DAV:   7    -0.322378080191E+04    0.20124E-05   -0.19808E-05  3880   0.298E-03    0.211E-02
DAV:   8    -0.322378080279E+04   -0.87965E-06   -0.77995E-06  3904   0.185E-03    0.546E-03
DAV:   9    -0.322378080297E+04   -0.18036E-06   -0.77485E-07  3432   0.662E-04    0.403E-03
DAV:  10    -0.322378080312E+04   -0.14850E-06   -0.23847E-07  2744   0.390E-04    0.210E-03
DAV:  11    -0.322378080313E+04   -0.16094E-07   -0.10864E-07  2416   0.257E-04
  498 T=   285. E= -.32670942E+04 F= -.32953444E+04 E0= -.32953444E+04  EK= 0.28250E+02 SP= 0.00E+00 SK= 0.00E+00
       N       E                     dE             d eps       ncg     rms          rms(c)
DAV:   1    -0.322296987961E+04    0.81092E+00   -0.22262E+00  3520   0.163E+00    0.892E-01
DAV:   2    -0.322302870488E+04   -0.58825E-01   -0.65972E-01  3864   0.545E-01    0.578E-01
DAV:   3    -0.322302703648E+04    0.16684E-02   -0.13420E-02  3952   0.804E-02    0.404E-01
DAV:   4    -0.322302629855E+04    0.73792E-03   -0.38239E-03  4048   0.408E-02    0.195E-01
DAV:   5    -0.322302628160E+04    0.16957E-04   -0.82129E-04  3880   0.206E-02    0.622E-02
DAV:   6    -0.322302628597E+04   -0.43697E-05   -0.17352E-04  3880   0.854E-03    0.440E-02
DAV:   7    -0.322302628367E+04    0.22928E-05   -0.18062E-05  3880   0.280E-03    0.248E-02
DAV:   8    -0.322302628401E+04   -0.33151E-06   -0.64303E-06  3920   0.170E-03    0.786E-03
DAV:   9    -0.322302628412E+04   -0.11221E-06   -0.73842E-07  3328   0.657E-04    0.391E-03
DAV:  10    -0.322302628415E+04   -0.33411E-07   -0.20656E-07  2656   0.367E-04
  499 T=   278. E= -.32670356E+04 F= -.32945796E+04 E0= -.32945796E+04  EK= 0.27544E+02 SP= 0.00E+00 SK= 0.00E+00
       N       E                     dE             d eps       ncg     rms          rms(c)
DAV:   1    -0.322228838449E+04    0.73790E+00   -0.23886E+00  3592   0.164E+00    0.926E-01
DAV:   2    -0.322234714641E+04   -0.58762E-01   -0.66263E-01  3800   0.545E-01    0.593E-01
DAV:   3    -0.322234531153E+04    0.18349E-02   -0.12791E-02  3952   0.799E-02    0.415E-01
DAV:   4    -0.322234450963E+04    0.80190E-03   -0.46800E-03  3952   0.442E-02    0.189E-01
DAV:   5    -0.322234450518E+04    0.44538E-05   -0.80031E-04  3864   0.199E-02    0.659E-02
DAV:   6    -0.322234450852E+04   -0.33377E-05   -0.13796E-04  3920   0.772E-03    0.421E-02
DAV:   7    -0.322234450598E+04    0.25367E-05   -0.18706E-05  3856   0.287E-03    0.195E-02
DAV:   8    -0.322234450575E+04    0.22544E-06   -0.90353E-06  3912   0.190E-03    0.540E-03
DAV:   9    -0.322234450580E+04   -0.47541E-07   -0.86113E-07  3432   0.680E-04
  500 T=   272. E= -.32669647E+04 F= -.32938894E+04 E0= -.32938894E+04  EK= 0.26925E+02 SP= 0.00E+00 SK= 0.00E+00
