CHNH3PbI3 tetr                          
           1
    25.054199    0.000000    0.000000
     0.000000   25.054207    0.000000
     0.000000    0.000000   25.348000
   C    H    I    N    Pb
  64 384 192  64  64
Direct configuration=    10
   0.12590203  0.11798113  0.12819723
   0.12604200  0.11832648  0.62788046
   0.12606783  0.61805601  0.12805059
   0.12588598  0.61848757  0.62834272
   0.62584740  0.11845731  0.12843965
   0.62599229  0.11841178  0.62798540
   0.62596255  0.61833994  0.12842807
   0.62628087  0.61855530  0.62816485
   0.37557974  0.36808998  0.12830628
   0.37559394  0.36859108  0.62815816
   0.37587297  0.86807737  0.12813444
   0.37595203  0.86852717  0.62834281
   0.87588974  0.36836573  0.12803779
   0.87609488  0.36803472  0.62835365
   0.87571066  0.86816959  0.12807222
   0.87561584  0.86808417  0.62813594
   0.13225245  0.37726402  0.12815485
   0.13225221  0.37729972  0.62814031
   0.13194105  0.87755969  0.12824388
   0.13220654  0.87696793  0.62826781
   0.63189423  0.37716617  0.12829708
   0.63221576  0.37702687  0.62769528
   0.63233842  0.87729775  0.12799743
   0.63208525  0.87726097  0.62825204
   0.38218499  0.12740889  0.12805179
   0.38199982  0.12712502  0.62808452
   0.38218520  0.62694753  0.12803893
   0.38224825  0.62697795  0.62812765
   0.88230508  0.12747973  0.12833395
   0.88195753  0.12695172  0.62802564
   0.88227292  0.62744933  0.12791838
   0.88226672  0.62719709  0.62811175
   0.13210534  0.12287814  0.37801181
   0.13241177  0.12283789  0.87814367
   0.13217133  0.62302939  0.37834825
   0.13206599  0.62312987  0.87846806
   0.63184959  0.12265420  0.37825091
   0.63194781  0.12303232  0.87827676
   0.63225170  0.62313636  0.37789594
   0.63211136  0.62319167  0.87831676
   0.38235916  0.37311518  0.37838077
   0.38203148  0.37298682  0.87813328
   0.38207249  0.87265909  0.37806630
   0.38230622  0.87277321  0.87780981
   0.88204616  0.37299333  0.37805761
   0.88216748  0.37298984  0.87817707
   0.88222542  0.87305994  0.37779724
   0.88234210  0.87251269  0.87841958
   0.12583962  0.38160945  0.37846133
   0.12573896  0.38161114  0.87785103
   0.12626278  0.88150856  0.37821920
   0.12559006  0.88172681  0.87820180
   0.62598338  0.38182026  0.37789658
   0.62584319  0.38177815  0.87812601
   0.62601215  0.88209108  0.37789316
   0.62635085  0.88192643  0.87845098
   0.37578264  0.13167344  0.37774141
   0.37575376  0.13154177  0.87794654
   0.37616375  0.63188816  0.37817116
   0.37582227  0.63202632  0.87804492
   0.87599268  0.13174793  0.37807155
   0.87604950  0.13186690  0.87846715
   0.87563503  0.63196327  0.37811797
   0.87581039  0.63191014  0.87827371
   0.40426617  0.09151324  0.11512972
   0.40387244  0.09126711  0.61557527
   0.40394115  0.59076668  0.11570818
   0.40407662  0.59165397  0.61564661
   0.90508799  0.09170929  0.11526625
   0.90396977  0.09186635  0.61524709
   0.90490259  0.59234277  0.11518512
   0.90432493  0.59156755  0.61554727
   0.15517711  0.34149666  0.11617469
   0.15432286  0.34176920  0.61553259
   0.15407397  0.84158922  0.11569359
   0.15405034  0.84135649  0.61573133
   0.65304703  0.34150915  0.11501926
   0.65432545  0.34189588  0.61486006
   0.65444366  0.84205105  0.11530587
   0.65388032  0.84175333  0.61553479
   0.12730497  0.37745809  0.17098840
   0.12765709  0.37739278  0.67097608
   0.12688165  0.87697300  0.17050489
   0.12708348  0.87644055  0.67125629
   0.62679057  0.37693790  0.17074480
   0.62740213  0.37670178  0.67115743
   0.62744792  0.87716773  0.17120769
   0.62697607  0.87750846  0.67089728
   0.37625823  0.12742845  0.17116315
   0.37658253  0.12661260  0.67054895
   0.37629773  0.62685938  0.17058702
   0.37677442  0.62609568  0.67111044
   0.87712931  0.12785803  0.17109794
   0.87676945  0.12664346  0.67035278
   0.87740445  0.62760253  0.17053013
   0.87751389  0.62712034  0.67113992
   0.15282098  0.41347194  0.11584780
   0.15368596  0.41322728  0.61510795
   0.15287891  0.91410955  0.11553841
   0.15326375  0.91336109  0.61556767
   0.65276500  0.41344370  0.11562429
   0.65415387  0.41280289  0.61500302
   0.65259732  0.91350967  0.11551856
   0.65316607  0.91355524  0.61571636
   0.40241555  0.16341175  0.11469181
   0.40295580  0.16355068  0.61570163
   0.40349806  0.66333261  0.11539151
   0.40334129  0.66334585  0.61508907
   0.90254055  0.16372891  0.11559931
   0.90311987  0.16324066  0.61562554
   0.90298597  0.66328921  0.11493090
   0.90288452  0.66342055  0.61483179
   0.30716486  0.09283545  0.11357292
   0.30599141  0.09263347  0.61311856
   0.30653906  0.59261300  0.11285020
   0.30639099  0.59222380  0.61303244
   0.80729517  0.09258606  0.11415750
   0.80645737  0.09287649  0.61247089
   0.80695118  0.59263569  0.11322759
   0.80711338  0.59225104  0.61357911
   0.05712418  0.34196673  0.11346622
   0.05668028  0.34269082  0.61385923
   0.05649799  0.84291318  0.11346931
   0.05667751  0.84300001  0.61324793
   0.55603570  0.34320577  0.11369020
   0.55667329  0.34251227  0.61229678
   0.55734960  0.84234338  0.11340785
   0.55646619  0.84297766  0.61361917
   0.33124532  0.12728576  0.06247030
   0.33140968  0.12678085  0.56257089
   0.33243907  0.62729787  0.06209418
   0.33144491  0.62711628  0.56252517
   0.83190955  0.12756604  0.06185378
   0.83110806  0.12717983  0.56213746
   0.83067805  0.62666521  0.06212915
   0.83137843  0.62654202  0.56213846
   0.08224973  0.37659796  0.06282570
   0.08122854  0.37776406  0.56241823
   0.08152804  0.87777819  0.06249239
   0.08180255  0.87739646  0.56201148
   0.58072136  0.37770537  0.06233598
   0.58149570  0.37746683  0.56229583
   0.58122486  0.87750828  0.06265762
   0.58093389  0.87755459  0.56215021
   0.30562003  0.16022220  0.11368221
   0.30592601  0.15958409  0.61336725
   0.30608895  0.65990040  0.11349986
   0.30577833  0.66032111  0.61369490
   0.80514476  0.15977877  0.11446531
   0.80531345  0.15989379  0.61347413
   0.80573158  0.65920060  0.11416028
   0.80585970  0.65951414  0.61495949
   0.05589874  0.40974815  0.11385974
   0.05583397  0.41010901  0.61412155
   0.05591569  0.91018933  0.11350930
   0.05601577  0.90960181  0.61386643
   0.55623825  0.40964236  0.11444325
   0.55675185  0.40984764  0.61366230
   0.55588113  0.91001777  0.11412690
   0.55601990  0.90986561  0.61338179
   0.37278967  0.41771577  0.06179863
   0.37258437  0.41862118  0.56233958
   0.37234044  0.91797525  0.06165198
   0.37188079  0.91847114  0.56236341
   0.87222381  0.41790881  0.06260867
   0.87223447  0.41773957  0.56176664
   0.87235655  0.91841423  0.06200481
   0.87261071  0.91757369  0.56199097
   0.12207110  0.16803275  0.06219828
   0.12283627  0.16832902  0.56219864
   0.12183366  0.66868426  0.06188238
   0.12275429  0.66810490  0.56253303
   0.62199294  0.16805729  0.06201517
   0.62348080  0.16914057  0.56209521
   0.62135457  0.66795550  0.06237900
   0.62212440  0.66856659  0.56213246
   0.40861313  0.44423094  0.11218015
   0.40762164  0.44471685  0.61181341
   0.40834136  0.94454757  0.11193328
   0.40863730  0.94481638  0.61116961
   0.90808142  0.44520418  0.11162903
   0.90848636  0.44388053  0.61246564
   0.90817267  0.94425489  0.11227454
   0.90823509  0.94362451  0.61092312
   0.15841905  0.19360383  0.11213248
   0.15789190  0.19419459  0.61128069
   0.15822066  0.69439555  0.11250221
   0.15846554  0.69454948  0.61127990
   0.65777027  0.19435585  0.11217939
   0.65792777  0.19444211  0.61156149
   0.65758883  0.69488299  0.11211831
   0.65831051  0.69538405  0.61055024
   0.34095646  0.44357126  0.11459009
   0.34099053  0.44419614  0.61476544
   0.34102302  0.94373331  0.11484022
   0.34105025  0.94378852  0.61404030
   0.84111759  0.44367847  0.11385613
   0.84077253  0.44327776  0.61475395
   0.84105226  0.94275750  0.11412053
   0.84130427  0.94378027  0.61406934
   0.09134506  0.19346567  0.11494423
   0.09156512  0.19424848  0.61415956
   0.09110193  0.69350508  0.11497613
   0.09122798  0.69433439  0.61348726
   0.59092959  0.19381158  0.11448304
   0.59142199  0.19429631  0.61441757
   0.59103878  0.69347396  0.11523040
   0.59090221  0.69436202  0.61408974
   0.16143883  0.09632904  0.11395825
   0.16046798  0.09658637  0.61322406
   0.16065544  0.59693694  0.11349646
   0.16162767  0.59649238  0.61446857
   0.66138509  0.09684253  0.11399816
   0.66121238  0.09725564  0.61286364
   0.66148832  0.59726829  0.11403565
   0.66132690  0.59774474  0.61390333
   0.41092531  0.34624139  0.11362085
   0.41124761  0.34689276  0.61328859
   0.41083219  0.84681075  0.11358158
   0.41126588  0.84726456  0.61357963
   0.91115602  0.34760810  0.11375450
   0.91110699  0.34675992  0.61384947
   0.91138006  0.84677587  0.11379816
   0.91077320  0.84652137  0.61360777
   0.33905833  0.34661273  0.11737800
   0.33902037  0.34688472  0.61801303
   0.33941994  0.84626924  0.11762710
   0.33904460  0.84658994  0.61749847
   0.83914972  0.34611681  0.11729182
   0.83943873  0.34656776  0.61791442
   0.83986557  0.84626323  0.11736234
   0.83940634  0.84703277  0.61775375
   0.08942276  0.09607293  0.11718932
   0.08930733  0.09666016  0.61702084
   0.08976408  0.59598357  0.11688345
   0.08886198  0.59671828  0.61784245
   0.58959183  0.09663875  0.11828848
   0.58927578  0.09692715  0.61643162
   0.58921719  0.59598155  0.11755960
   0.58936376  0.59644302  0.61790590
   0.12798435  0.12313764  0.17110644
   0.12828544  0.12369035  0.67125063
   0.12935651  0.62302597  0.17149988
   0.12765825  0.62414371  0.67038061
   0.62755013  0.12380382  0.17105549
   0.62774595  0.12404943  0.67132728
   0.62892832  0.62347226  0.17075004
   0.62846241  0.62467608  0.67024370
   0.37743189  0.37370591  0.17114422
   0.37754958  0.37376064  0.67089054
   0.37780182  0.87350634  0.17117830
   0.37824015  0.87430408  0.67067380
   0.87823117  0.37440902  0.17100514
   0.87881115  0.37310953  0.67078063
   0.87782401  0.87269870  0.17095755
   0.87749273  0.87398998  0.67063856
   0.30659056  0.34019857  0.36531345
   0.30608237  0.33992795  0.86378251
   0.30557996  0.84014520  0.36434277
   0.30600316  0.83997633  0.86459118
   0.80579210  0.34047975  0.36467816
   0.80538379  0.34067069  0.86470393
   0.80549298  0.84016896  0.36402123
   0.80603073  0.84064338  0.86471803
   0.05559791  0.09009065  0.36405437
   0.05675808  0.09000858  0.86538300
   0.05632791  0.59005854  0.36482928
   0.05551943  0.59018802  0.86488049
   0.55598784  0.09036372  0.36416787
   0.55603454  0.09092585  0.86480399
   0.55616270  0.59014037  0.36460598
   0.55604104  0.59016969  0.86453730
   0.33221946  0.37257098  0.31239792
   0.33163635  0.37290818  0.81233501
   0.33161006  0.87286938  0.31193923
   0.33189598  0.87206229  0.81211752
   0.83108152  0.37190430  0.31172914
   0.83154422  0.37245057  0.81229455
   0.83124437  0.87295420  0.31264186
   0.83156305  0.87133744  0.81215905
   0.08107349  0.12228393  0.31201821
   0.08132799  0.12161822  0.81252358
   0.08219275  0.62271693  0.31262079
   0.08230997  0.62270049  0.81184638
   0.58091811  0.12172396  0.31231316
   0.58132055  0.12285343  0.81193399
   0.58148366  0.62179965  0.31222287
   0.58174027  0.62260133  0.81198876
   0.30673805  0.40782827  0.36363022
   0.30700634  0.40776873  0.86266643
   0.30693677  0.90786123  0.36278440
   0.30711454  0.90811677  0.86288756
   0.80616420  0.40689846  0.36383031
   0.80706065  0.40699607  0.86369621
   0.80693006  0.90758930  0.36241306
   0.80681456  0.90737105  0.86371968
   0.05690721  0.15751882  0.36332143
   0.05730063  0.15741631  0.86361986
   0.05695638  0.65759866  0.36330829
   0.05710304  0.65768592  0.86273565
   0.55609631  0.15699607  0.36238694
   0.55629893  0.15716211  0.86332365
   0.55652329  0.65739096  0.36317137
   0.55653164  0.65794478  0.86302126
   0.15283370  0.08629536  0.36510365
   0.15379156  0.08702662  0.86538718
   0.15315613  0.58620388  0.36589113
   0.15284541  0.58621961  0.86627100
   0.65290331  0.08633732  0.36650058
   0.65317648  0.08705035  0.86576060
   0.65356543  0.58671700  0.36550398
   0.65327836  0.58657276  0.86587744
   0.40379496  0.33657398  0.36626443
   0.40368197  0.33685296  0.86601706
   0.40287862  0.83650883  0.36583351
   0.40339484  0.83664399  0.86533020
   0.90320929  0.33712783  0.36538186
   0.90302189  0.33625094  0.86585983
   0.90278864  0.83702059  0.36546403
   0.90329859  0.83606986  0.86676285
   0.12677413  0.12289976  0.42113855
   0.12784647  0.12365455  0.92149596
   0.12676871  0.62379862  0.42100704
   0.12696096  0.62376313  0.92089454
   0.62681847  0.12300125  0.42113809
   0.62729339  0.12333483  0.92136797
   0.62755908  0.62367052  0.42143407
   0.62652772  0.62369307  0.92072908
   0.37776918  0.37365992  0.42133046
   0.37696312  0.37386609  0.92083499
   0.37678941  0.87289562  0.42111800
   0.37731677  0.87316253  0.92137976
   0.87728615  0.37412596  0.42070996
   0.87747470  0.37352096  0.92093127
   0.87722959  0.87379712  0.42053331
   0.87797691  0.87280823  0.92143715
   0.40436495  0.40839385  0.36565960
   0.40482622  0.40812798  0.86555378
   0.40448840  0.90738478  0.36495808
   0.40459055  0.90802910  0.86478986
   0.90405729  0.40818463  0.36455868
   0.90478109  0.40816680  0.86492108
   0.90461026  0.90808360  0.36462794
   0.90511062  0.90817001  0.86483688
   0.15421572  0.15826758  0.36446724
   0.15434483  0.15781304  0.86437005
   0.15409581  0.65819715  0.36470668
   0.15442278  0.65895849  0.86603557
   0.65377723  0.15863568  0.36460349
   0.65378260  0.15819245  0.86548698
   0.65347149  0.65812974  0.36473634
   0.65359180  0.65850592  0.86528748
   0.40777292  0.05544351  0.36123227
   0.40827458  0.05585195  0.86117176
   0.40854201  0.55653751  0.36103530
   0.40889875  0.55636861  0.86127784
   0.90819935  0.05574957  0.36210886
   0.90849731  0.05633213  0.86224539
   0.90777079  0.55590446  0.36188160
   0.90890066  0.55633813  0.86147979
   0.15738449  0.30569802  0.36199896
   0.15813937  0.30515083  0.86185632
   0.15831101  0.80524844  0.36113262
   0.15808401  0.80552200  0.86203223
   0.65797879  0.30626905  0.36135074
   0.65849145  0.30621049  0.86143684
   0.65826087  0.80561573  0.36195741
   0.65808978  0.80564796  0.86205208
   0.37209379  0.08094711  0.31176244
   0.37304966  0.08053841  0.81214638
   0.37258898  0.58249344  0.31271304
   0.37335096  0.58210172  0.81177197
   0.87245179  0.08130599  0.31132451
   0.87321302  0.08181396  0.81191081
   0.87201203  0.58120921  0.31192380
   0.87217243  0.58198993  0.81220682
   0.12177530  0.33123546  0.31216902
   0.12219621  0.33055412  0.81216988
   0.12281489  0.83154366  0.31204810
   0.12227056  0.83097376  0.81196360
   0.62305656  0.33162192  0.31182884
   0.62261331  0.33110947  0.81171302
   0.62143138  0.83193163  0.31211579
   0.62270873  0.83218783  0.81178738
   0.34070737  0.05630198  0.36376358
   0.34182005  0.05532590  0.86429617
   0.34061952  0.55680682  0.36398310
   0.34097976  0.55583823  0.86484862
   0.84112459  0.05672154  0.36473418
   0.84101778  0.05634818  0.86507340
   0.84092401  0.55639691  0.36498608
   0.84079249  0.55649174  0.86410128
   0.09166797  0.30632936  0.36481356
   0.09120296  0.30619114  0.86386556
   0.09147167  0.80639420  0.36397170
   0.09098884  0.80672294  0.86462472
   0.59129685  0.30596145  0.36412845
   0.59120291  0.30601581  0.86413802
   0.59119734  0.80689541  0.36463547
   0.59156840  0.80621019  0.86525176
   0.16098750  0.40301450  0.36386981
   0.16116108  0.40289057  0.86303362
   0.16138210  0.90296832  0.36424401
   0.16124514  0.90312080  0.86285015
   0.66133507  0.40364967  0.36370832
   0.66036053  0.40335356  0.86343711
   0.66117629  0.90337602  0.36309273
   0.66098510  0.90340953  0.86395267
   0.41059735  0.15335758  0.36291051
   0.41104890  0.15320645  0.86326585
   0.41086228  0.65344172  0.36433290
   0.41032788  0.65403696  0.86372489
   0.91116597  0.15269572  0.36322244
   0.91087384  0.15355751  0.86416050
   0.91068244  0.65356194  0.36307403
   0.91092535  0.65393259  0.86385945
   0.12803754  0.37661755  0.42092539
   0.12821659  0.37671577  0.92096301
   0.12870429  0.87635898  0.42043017
   0.12810428  0.87658707  0.92134506
   0.62828533  0.37654437  0.42124943
   0.62770224  0.37639850  0.92071737
   0.62831506  0.87697656  0.42118455
   0.62906765  0.87666119  0.92082409
   0.37809989  0.12650119  0.42073404
   0.37795761  0.12647216  0.92103668
   0.37851254  0.62639479  0.42073599
   0.37751285  0.62625537  0.92121983
   0.87836407  0.12685426  0.42107366
   0.87760866  0.12745862  0.92079883
   0.87800675  0.62739724  0.42126830
   0.87833707  0.62665372  0.92064401
   0.33948696  0.15354527  0.36754041
   0.33952215  0.15208113  0.86681065
   0.33952304  0.65441858  0.36781449
   0.33944318  0.65345976  0.86729354
   0.83931149  0.15313750  0.36729651
   0.83950231  0.15351341  0.86836489
   0.83942609  0.65310653  0.36787659
   0.83965681  0.65363934  0.86763096
   0.08898080  0.40340951  0.36803100
   0.08935609  0.40315652  0.86671940
   0.08925770  0.90373155  0.36788210
   0.08969928  0.90324356  0.86698631
   0.59008649  0.40329969  0.36696059
   0.58955212  0.40309457  0.86720993
   0.59015727  0.90400661  0.36739909
   0.58926355  0.90369915  0.86764196
   0.99884455  0.99910769  0.12262895
   0.99922475  0.99871701  0.62319778
   0.00159976  0.49899860  0.12540256
   0.99944049  0.50118997  0.62531215
   0.50220845  0.00060599  0.12513742
   0.49979244  0.99926981  0.62410053
   0.50123753  0.50096046  0.12488362
   0.49991976  0.49782195  0.62675154
   0.25078079  0.24809926  0.12525755
   0.25124710  0.25191882  0.62282223
   0.25070555  0.74819712  0.12730031
   0.24810059  0.75097296  0.62301604
   0.74789158  0.25139608  0.12570193
   0.74948312  0.25059383  0.62582552
   0.75013527  0.75245725  0.12390592
   0.74829182  0.75075024  0.62562963
   0.99820079  0.99993421  0.37679489
   0.00242098  0.00114495  0.87664552
   0.99829816  0.49820028  0.37388033
   0.00149243  0.50145459  0.87353485
   0.50021152  0.99800078  0.37562836
   0.49843143  0.99777758  0.87574514
   0.49993617  0.49981297  0.37549908
   0.49889036  0.50056878  0.87665587
   0.25045498  0.24796436  0.37573821
   0.24879664  0.25192518  0.87630783
   0.24823913  0.74927053  0.37366909
   0.24818388  0.75224781  0.87394956
   0.75097442  0.25233583  0.37688464
   0.74950558  0.25192761  0.87452058
   0.74752055  0.74989614  0.37598124
   0.74881363  0.74772487  0.87392733
   0.25122131  0.00055462  0.37374792
   0.25203552  0.99921967  0.87319487
   0.25151800  0.50146220  0.37562813
   0.24780640  0.49900007  0.87628164
   0.74755198  0.00090042  0.37574111
   0.74884025  0.00165871  0.87454722
   0.74825830  0.49929719  0.37512576
   0.75052858  0.49787225  0.87529476
   0.00223325  0.25002225  0.37498544
   0.00110553  0.25095991  0.87535020
   0.00127650  0.75240561  0.37579169
   0.99771520  0.75089549  0.87412244
   0.49953516  0.24966991  0.37377468
   0.49984727  0.24998330  0.87537738
   0.50147263  0.74851024  0.37485519
   0.49988731  0.75228162  0.87744203
   0.25175385  0.00237174  0.12457333
   0.24829212  0.99823005  0.62607012
   0.24997837  0.50008254  0.12724997
   0.24797450  0.49755625  0.62644737
   0.74892183  0.99894063  0.12530239
   0.74985815  0.00136882  0.62427060
   0.74780966  0.50114527  0.12403747
   0.75144090  0.50176088  0.62449363
   0.00076653  0.24957098  0.12304824
   0.00102446  0.25086301  0.62570324
   0.00223120  0.75045528  0.12593551
   0.99885061  0.74933254  0.62280916
   0.50175306  0.25050303  0.12681273
   0.49841355  0.25169121  0.62479587
   0.49832024  0.75064399  0.12610444
   0.50140637  0.75002859  0.62420244
   0.21858098  0.12456506  0.00195999
   0.21836630  0.12747325  0.49853635
   0.21563505  0.62347704  0.00180048
   0.21959041  0.62478677  0.49858347
   0.71740752  0.12356451  0.99991334
   0.71760753  0.12667894  0.50149699
   0.71850983  0.62717324  0.00157298
   0.72022460  0.62289389  0.50223069
   0.46623802  0.37397214  0.00066728
   0.46722703  0.37594611  0.50007304
   0.46901598  0.87667047  0.99984426
   0.46719061  0.87294719  0.50060236
   0.96727512  0.37575132  0.00134851
   0.96683467  0.37743340  0.49993866
   0.96969041  0.87520204  0.00234909
   0.96646373  0.87368278  0.50117049
   0.27955037  0.37732418  0.99931235
   0.28318237  0.37415885  0.49813865
   0.28379235  0.87340550  0.99883801
   0.28075833  0.87641528  0.49848668
   0.78275404  0.37438420  0.99949766
   0.77990521  0.37505153  0.49842376
   0.78121351  0.87283731  0.00172610
   0.78270866  0.87679979  0.50145644
   0.03237129  0.12586089  0.99921707
   0.03354850  0.12543234  0.50170406
   0.03068107  0.62506348  0.00162093
   0.03412222  0.62569499  0.49858119
   0.53074982  0.12437120  0.99830176
   0.53404798  0.12367248  0.50052104
   0.53431849  0.62372098  0.00065357
   0.53286522  0.62674093  0.50006173
   0.12485399  0.46583944  0.00211208
   0.12540911  0.46903333  0.49876441
   0.12314334  0.96679657  0.00208825
   0.12439163  0.96794465  0.49908719
   0.62310677  0.46621976  0.00216703
   0.62385105  0.46888075  0.50040676
   0.62373026  0.96586780  0.99919507
   0.62715965  0.96672078  0.50002521
   0.37414455  0.21914248  0.00236772
   0.37507906  0.21645868  0.49894029
   0.37591810  0.71806659  0.99856316
   0.37314066  0.71798567  0.49843653
   0.87332336  0.21607821  0.00077483
   0.87526344  0.21902752  0.49788580
   0.87269635  0.72011608  0.99758659
   0.87612522  0.72021774  0.49877591
   0.37553049  0.03315382  0.00180359
   0.37386674  0.02991272  0.49800832
   0.37480097  0.53397106  0.00200201
   0.37632126  0.53096390  0.49945102
   0.87508005  0.03019087  0.99985903
   0.87708832  0.03037097  0.50118064
   0.87366678  0.53064205  0.99943370
   0.87350596  0.53124790  0.49886133
   0.12560708  0.28356647  0.99793058
   0.12372291  0.28192838  0.49893939
   0.12289306  0.78271467  0.00099011
   0.12650445  0.78384695  0.49964751
   0.62482369  0.28008337  0.99806189
   0.62553967  0.28231135  0.49832552
   0.62364871  0.78195922  0.99903898
   0.62631959  0.78101864  0.50238981
   0.12263116  0.03361957  0.24816897
   0.12385139  0.03115203  0.74954391
   0.12513182  0.53431598  0.25202749
   0.12610219  0.53396460  0.74863975
   0.62550490  0.03025047  0.24878652
   0.62406282  0.03239738  0.75141224
   0.62481826  0.53254307  0.24921375
   0.62293413  0.53430763  0.74801672
   0.37492739  0.28188883  0.25081631
   0.37637118  0.28195212  0.74812663
   0.37402584  0.78136483  0.24874516
   0.37681383  0.78261149  0.75205666
   0.87628423  0.28290088  0.24936829
   0.87589041  0.28233724  0.75050627
   0.87448264  0.78189873  0.24902693
   0.87359789  0.78121856  0.74940964
   0.37745175  0.46628599  0.25206468
   0.37396378  0.46689413  0.74786105
   0.37500720  0.96601770  0.25068939
   0.37460460  0.96895696  0.75176115
   0.87642847  0.47020677  0.25049214
   0.87740489  0.46864840  0.75182441
   0.87685841  0.96666192  0.24865127
   0.87365639  0.97049390  0.75155828
   0.12722261  0.21798829  0.25125625
   0.12347472  0.21869960  0.74905364
   0.12688716  0.71615448  0.25046906
   0.12520710  0.71893269  0.74938098
   0.62492504  0.21659840  0.24862346
   0.62673188  0.21650609  0.75052518
   0.62560458  0.71688561  0.24873207
   0.62315611  0.72032949  0.75241678
   0.28148622  0.12532672  0.24834812
   0.28444890  0.12338922  0.75123359
   0.28076946  0.62744909  0.24985923
   0.28160165  0.62588647  0.74926878
   0.78362707  0.12526590  0.24987836
   0.78035241  0.12571450  0.74837881
   0.78271521  0.62652030  0.25009840
   0.78144574  0.62367389  0.75178218
   0.03189188  0.37460335  0.25208326
   0.03060327  0.37676790  0.75114276
   0.03152934  0.87520345  0.24894844
   0.03151608  0.87570595  0.75091174
   0.52958822  0.37664905  0.24813866
   0.53150099  0.37511481  0.75085727
   0.53052043  0.87384504  0.25095315
   0.53380335  0.87437213  0.74859364
   0.21956254  0.37485623  0.24908465
   0.21909395  0.37439572  0.75011645
   0.21996925  0.87413628  0.25188844
   0.21871996  0.87332006  0.74894925
   0.71916921  0.37311797  0.25028145
   0.71625729  0.37484220  0.75229541
   0.71974696  0.87581908  0.25203981
   0.71811895  0.87525611  0.74967405
   0.46826485  0.12356055  0.24868284
   0.47041314  0.12285841  0.74777938
   0.46659462  0.62618924  0.25033439
   0.46970020  0.62616853  0.74865766
   0.97019745  0.12481126  0.24818079
   0.97010267  0.12569527  0.74918533
   0.96725773  0.62703925  0.24809720
   0.96775857  0.62512324  0.74999170
   0.37419906  0.42186965  0.10278154
   0.37420086  0.42217686  0.60266921
   0.37421970  0.92183214  0.10272161
   0.37418564  0.92202821  0.60254218
   0.87422708  0.42188898  0.10232118
   0.87432317  0.42185227  0.60293691
   0.87406981  0.92185896  0.10286497
   0.87429958  0.92172327  0.60240793
   0.12436405  0.17181927  0.10284725
   0.12458746  0.17191967  0.60241948
   0.12439627  0.67183715  0.10289193
   0.12459585  0.67182771  0.60237965
   0.62418509  0.17204547  0.10283544
   0.62440817  0.17216050  0.60263092
   0.62416540  0.67197783  0.10299699
   0.62444309  0.67198577  0.60260835
   0.32822750  0.12656501  0.10302470
   0.32818129  0.12635588  0.60300023
   0.32832225  0.62643513  0.10267371
   0.32826396  0.62650646  0.60282794
   0.82838717  0.12636882  0.10324848
   0.82837294  0.12628267  0.60280859
   0.82838896  0.62639364  0.10318644
   0.82819702  0.62644796  0.60326171
   0.07854433  0.37636040  0.10314682
   0.07849304  0.37661201  0.60316336
   0.07826080  0.87684595  0.10302683
   0.07837350  0.87644613  0.60324442
   0.57791889  0.37667336  0.10340774
   0.57845534  0.37658803  0.60260238
   0.57843648  0.87645347  0.10307818
   0.57834717  0.87674881  0.60331600
   0.32849309  0.37332918  0.35337808
   0.32848565  0.37361309  0.85288927
   0.32829966  0.87332101  0.35297022
   0.32837548  0.87338553  0.85281681
   0.82825991  0.37343653  0.35317687
   0.82843330  0.37352356  0.85330585
   0.82839906  0.87373758  0.35289448
   0.82844346  0.87313640  0.85339453
   0.07804397  0.12332520  0.35296929
   0.07843429  0.12331565  0.85332123
   0.07824916  0.62333590  0.35319523
   0.07827772  0.62366422  0.85306889
   0.57804414  0.12310958  0.35320755
   0.57815761  0.12352125  0.85335950
   0.57837965  0.62346103  0.35300763
   0.57815074  0.62362659  0.85298014
   0.37428320  0.07816986  0.35252231
   0.37477443  0.07786494  0.85257371
   0.37476304  0.57841567  0.35255730
   0.37460038  0.57825794  0.85247983
   0.87443004  0.07782027  0.35282895
   0.87466925  0.07833515  0.85294182
   0.87409510  0.57823922  0.35304898
   0.87448461  0.57831142  0.85263675
   0.12430055  0.32799849  0.35315969
   0.12412657  0.32805240  0.85251340
   0.12450958  0.82820072  0.35260466
   0.12421314  0.82793939  0.85274941
   0.62455638  0.32809276  0.35233752
   0.62442849  0.32814976  0.85276858
   0.62430115  0.82824159  0.35262341
   0.62467586  0.82833698  0.85296811
   0.99887918  0.99957724  0.25200530
   0.99796000  0.00084931  0.75085599
   0.00036257  0.50063545  0.25174330
   0.00111109  0.50099111  0.74906001
   0.50063852  0.00197795  0.24764585
   0.49844675  0.00126143  0.75162963
   0.49912354  0.49857732  0.24828787
   0.50142640  0.49913113  0.75146202
   0.24894873  0.25229989  0.25174402
   0.24921121  0.24810244  0.75231082
   0.25191836  0.74996440  0.25121589
   0.25038492  0.75042915  0.74906134
   0.74953310  0.24898058  0.24856931
   0.75137970  0.25062572  0.74945388
   0.74829637  0.75167308  0.24951009
   0.74982570  0.75059069  0.75233411
   0.25204672  0.99938912  0.00129279
   0.25004744  0.99913730  0.50246402
   0.24944438  0.50225951  0.00039948
   0.25124558  0.49982721  0.50195985
   0.74857327  0.00145581  0.00025531
   0.75108551  0.99763067  0.50018976
   0.75132644  0.50225414  0.99811816
   0.75102634  0.50184882  0.50158858
   0.00008335  0.24888353  0.99843581
   0.00199626  0.24925013  0.50015324
   0.99935823  0.74886496  0.99927967
   0.00023555  0.74884871  0.49776762
   0.49973322  0.24834300  0.99800696
   0.49998107  0.24831713  0.50006152
   0.50151285  0.75212007  0.00179442
   0.50027420  0.74869196  0.49894607
   0.24974094  0.00180806  0.24774118
   0.24915161  0.00089484  0.74831954
   0.25217106  0.49876628  0.24886645
   0.25022884  0.50135794  0.74936761
   0.75177896  0.99798681  0.25007659
   0.74988111  0.00193065  0.75157063
   0.74924204  0.49995182  0.25027906
   0.75060627  0.50003802  0.74898906
   0.99936699  0.25210097  0.24936955
   0.99978666  0.25083094  0.74893318
   0.00027469  0.74792061  0.25085354
   0.99857015  0.75066379  0.74885039
   0.50000889  0.24806671  0.24834037
   0.49981019  0.25102707  0.75133249
   0.49902776  0.74859004  0.25008438
   0.50136518  0.75018696  0.74778331
   0.99802633  0.00241605  0.99757294
   0.99824871  0.99883262  0.50143392
   0.99910486  0.49896671  0.00017475
   0.00191733  0.49986132  0.50240824
   0.49969786  0.99990091  0.99911664
   0.50140537  0.00101360  0.50051365
   0.50202955  0.49874356  0.99769519
   0.50024075  0.50044099  0.50210594
   0.24835369  0.24843243  0.99956410
   0.25192157  0.25038669  0.49800140
   0.24921778  0.74864605  0.99946862
   0.25101315  0.74853671  0.50043728
   0.74855694  0.25015851  0.99763124
   0.74908252  0.25232453  0.50089692
   0.74864002  0.75202038  0.99813849
   0.74861097  0.75140469  0.50142344
Direct configuration=    20
   0.12577770  0.11775086  0.12842982
   0.12604038  0.11856494  0.62794307
   0.12588981  0.61794785  0.12835197
   0.12583748  0.61863003  0.62823043
   0.62576901  0.11839779  0.12832043
   0.62583147  0.11845035  0.62812618
   0.62595492  0.61855964  0.12836285
   0.62611242  0.61889901  0.62822372
   0.37548904  0.36793809  0.12838290
   0.37554838  0.36846315  0.62807244
   0.37579675  0.86782476  0.12830985
   0.37580839  0.86855555  0.62839153
   0.87562729  0.36867634  0.12815495
   0.87599086  0.36791721  0.62847437