       N       E                     dE             d eps       ncg     rms          rms(c)
DAV:   1     0.198977680445E+05    0.19898E+05   -0.94961E+05  3400   0.107E+03
DAV:   2    -0.348833876449E+03   -0.20247E+05   -0.19584E+05  4592   0.233E+02
DAV:   3    -0.329826937839E+04   -0.29494E+04   -0.29279E+04  3880   0.984E+01
DAV:   4    -0.341062834306E+04   -0.11236E+03   -0.11189E+03  3928   0.225E+01
DAV:   5    -0.341485133489E+04   -0.42230E+01   -0.42182E+01  4880   0.425E+00    0.103E+02
DAV:   6    -0.324475436293E+04    0.17010E+03   -0.34909E+02  3904   0.104E+01    0.575E+01
DAV:   7    -0.322270357234E+04    0.22051E+02   -0.13464E+02  3976   0.686E+00    0.286E+01
DAV:   8    -0.322157134620E+04    0.11322E+01   -0.17379E+01  3848   0.256E+00    0.107E+01
DAV:   9    -0.322170140851E+04   -0.13006E+00   -0.18720E+00  3920   0.929E-01    0.383E+00
DAV:  10    -0.322173703875E+04   -0.35630E-01   -0.56256E-01  3712   0.449E-01    0.128E+00
DAV:  11    -0.322173190823E+04    0.51305E-02   -0.15207E-01  3944   0.258E-01    0.536E-01
DAV:  12    -0.322174019654E+04   -0.82883E-02   -0.28555E-02  3976   0.116E-01    0.309E-01
DAV:  13    -0.322174507222E+04   -0.48757E-02   -0.50439E-03  3624   0.536E-02    0.251E-01
DAV:  14    -0.322174613852E+04   -0.10663E-02   -0.36384E-03  3880   0.383E-02    0.118E-01
DAV:  15    -0.322174635239E+04   -0.21387E-03   -0.34043E-04  3728   0.134E-02    0.568E-02
DAV:  16    -0.322174644902E+04   -0.96625E-04   -0.25633E-04  3696   0.113E-02    0.269E-02
DAV:  17    -0.322174647244E+04   -0.23420E-04   -0.71375E-05  4072   0.577E-03    0.174E-02
DAV:  18    -0.322174647458E+04   -0.21448E-05   -0.46017E-06  4456   0.132E-03    0.158E-02
DAV:  19    -0.322174647457E+04    0.90513E-08   -0.35934E-06  3912   0.125E-03    0.761E-03
DAV:  20    -0.322174647479E+04   -0.21965E-06   -0.20205E-06  3584   0.957E-04    0.255E-03
DAV:  21    -0.322174647479E+04    0.70577E-08   -0.14955E-07  2560   0.302E-04
    1 T=   284. E= -.32645170E+04 F= -.32926629E+04 E0= -.32926629E+04  EK= 0.28146E+02 SP= 0.00E+00 SK= 0.00E+00
       N       E                     dE             d eps       ncg     rms          rms(c)
DAV:   1    -0.322163109958E+04    0.11538E+00   -0.47022E+01  3344   0.430E+00    0.198E+00
DAV:   2    -0.322167812925E+04   -0.47030E-01   -0.62324E-01  3568   0.531E-01    0.117E+00
DAV:   3    -0.322167220193E+04    0.59273E-02   -0.20915E-02  4048   0.110E-01    0.618E-01
DAV:   4    -0.322167166392E+04    0.53801E-03   -0.10663E-02  3888   0.710E-02    0.862E-02
DAV:   5    -0.322167177374E+04   -0.10982E-03   -0.18954E-03  3680   0.280E-02    0.794E-02
DAV:   6    -0.322167176445E+04    0.92886E-05   -0.12855E-04  3984   0.775E-03    0.584E-02
DAV:   7    -0.322167176519E+04   -0.73510E-06   -0.31851E-05  3792   0.414E-03    0.263E-02
DAV:   8    -0.322167176375E+04    0.14399E-05   -0.21182E-05  3904   0.355E-03    0.976E-03
DAV:   9    -0.322167176387E+04   -0.12638E-06   -0.11545E-05  4040   0.217E-03    0.660E-03
DAV:  10    -0.322167176392E+04   -0.46115E-07   -0.10198E-06  3584   0.709E-04    0.297E-03
DAV:  11    -0.322167176424E+04   -0.31875E-06   -0.67589E-07  3200   0.626E-04    0.144E-03
DAV:  12    -0.322167176433E+04   -0.92856E-07   -0.15701E-07  2432   0.319E-04
    2 T=   283. E= -.32645178E+04 F= -.32925873E+04 E0= -.32925873E+04  EK= 0.28070E+02 SP= 0.00E+00 SK= 0.00E+00
       N       E                     dE             d eps       ncg     rms          rms(c)
DAV:   1    -0.322159912113E+04    0.72643E-01   -0.19041E-01  3664   0.737E-01    0.230E-01
DAV:   2    -0.322160574150E+04   -0.66204E-02   -0.66638E-02  3568   0.184E-01    0.155E-01
DAV:   3    -0.322160570770E+04    0.33794E-04   -0.91640E-04  4504   0.211E-02    0.110E-01
DAV:   4    -0.322160571714E+04   -0.94408E-05   -0.51971E-04  3912   0.149E-02    0.382E-02
DAV:   5    -0.322160572564E+04   -0.84949E-05   -0.61588E-05  3776   0.563E-03    0.239E-02
DAV:   6    -0.322160572473E+04    0.90354E-06   -0.23387E-05  4456   0.306E-03    0.104E-02
DAV:   7    -0.322160572567E+04   -0.93502E-06   -0.24092E-06  3792   0.120E-03    0.349E-03
DAV:   8    -0.322160572542E+04    0.24989E-06   -0.52083E-07  2856   0.478E-04    0.151E-03
DAV:   9    -0.322160572523E+04    0.18672E-06   -0.14434E-07  2208   0.293E-04    0.722E-04
DAV:  10    -0.322160572509E+04    0.13906E-06   -0.31176E-08  1928   0.136E-04    0.260E-04
DAV:  11    -0.322160572506E+04    0.34779E-07   -0.82487E-09  1896   0.698E-05
    3 T=   282. E= -.32645183E+04 F= -.32925196E+04 E0= -.32925196E+04  EK= 0.28001E+02 SP= 0.00E+00 SK= 0.00E+00
       N       E                     dE             d eps       ncg     rms          rms(c)
DAV:   1    -0.322153472292E+04    0.71002E-01   -0.16418E-02  4712   0.623E-01    0.924E-02
DAV:   2    -0.322153692477E+04   -0.22018E-02   -0.22169E-02  3864   0.944E-02    0.880E-02
DAV:   3    -0.322153686895E+04    0.55821E-04   -0.29461E-04  4496   0.112E-02    0.667E-02
DAV:   4    -0.322153682204E+04    0.46908E-04   -0.24817E-04  4336   0.919E-03    0.306E-02
DAV:   5    -0.322153682384E+04   -0.18000E-05   -0.29691E-05  3624   0.366E-03    0.229E-02
DAV:   6    -0.322153682336E+04    0.48192E-06   -0.64664E-06  4104   0.165E-03    0.104E-02
DAV:   7    -0.322153682275E+04    0.60984E-06   -0.28515E-06  3536   0.119E-03    0.266E-03
DAV:   8    -0.322153682267E+04    0.70548E-07   -0.99292E-07  2776   0.621E-04
    4 T=   282. E= -.32645183E+04 F= -.32924492E+04 E0= -.32924492E+04  EK= 0.27931E+02 SP= 0.00E+00 SK= 0.00E+00
       N       E                     dE             d eps       ncg     rms          rms(c)
DAV:   1    -0.322146197566E+04    0.74847E-01   -0.18304E-02  4660   0.619E-01    0.917E-02
DAV:   2    -0.322146423209E+04   -0.22564E-02   -0.22736E-02  3896   0.935E-02    0.953E-02
DAV:   3    -0.322146416180E+04    0.70290E-04   -0.29613E-04  4480   0.110E-02    0.732E-02
DAV:   4    -0.322146409323E+04    0.68573E-04   -0.29609E-04  4344   0.955E-03    0.326E-02
DAV:   5    -0.322146409422E+04   -0.98911E-06   -0.30487E-05  3632   0.375E-03    0.236E-02
DAV:   6    -0.322146409273E+04    0.14884E-05   -0.60165E-06  4024   0.161E-03    0.110E-02
DAV:   7    -0.322146409204E+04    0.68345E-06   -0.18805E-06  3400   0.978E-04    0.300E-03
DAV:   8    -0.322146409190E+04    0.14820E-06   -0.43830E-07  2600   0.432E-04    0.160E-03
DAV:   9    -0.322146409177E+04    0.12945E-06   -0.44115E-08  1968   0.168E-04    0.574E-04
DAV:  10    -0.322146409170E+04    0.69136E-07   -0.15117E-08  1896   0.957E-05
    5 T=   281. E= -.32645178E+04 F= -.32923761E+04 E0= -.32923761E+04  EK= 0.27858E+02 SP= 0.00E+00 SK= 0.00E+00
       N       E                     dE             d eps       ncg     rms          rms(c)
DAV:   1    -0.322139237473E+04    0.71717E-01   -0.12298E-02  4744   0.610E-01    0.824E-02
DAV:   2    -0.322139430665E+04   -0.19319E-02   -0.19421E-02  3904   0.869E-02    0.820E-02
DAV:   3    -0.322139426166E+04    0.44996E-04   -0.24067E-04  4496   0.100E-02    0.620E-02
DAV:   4    -0.322139421456E+04    0.47094E-04   -0.19171E-04  4272   0.789E-03    0.258E-02
DAV:   5    -0.322139421536E+04   -0.80239E-06   -0.17966E-05  3688   0.292E-03    0.183E-02
DAV:   6    -0.322139421430E+04    0.10637E-05   -0.31334E-06  3704   0.123E-03    0.795E-03
DAV:   7    -0.322139421402E+04    0.28557E-06   -0.11888E-06  3064   0.748E-04    0.210E-03
DAV:   8    -0.322139421408E+04   -0.63446E-07   -0.18797E-07  2312   0.309E-04
    6 T=   280. E= -.32645182E+04 F= -.32923075E+04 E0= -.32923075E+04  EK= 0.27789E+02 SP= 0.00E+00 SK= 0.00E+00
       N       E                     dE             d eps       ncg     rms          rms(c)
DAV:   1    -0.322132316069E+04    0.71053E-01   -0.79161E-03  4684   0.603E-01    0.732E-02
DAV:   2    -0.322132470287E+04   -0.15422E-02   -0.15505E-02  3864   0.823E-02    0.702E-02
DAV:   3    -0.322132467930E+04    0.23575E-04   -0.17181E-04  4472   0.875E-03    0.533E-02
DAV:   4    -0.322132465649E+04    0.22804E-04   -0.92448E-05  4144   0.625E-03    0.242E-02
DAV:   5    -0.322132465742E+04   -0.93065E-06   -0.12175E-05  3768   0.240E-03    0.151E-02
DAV:   6    -0.322132465734E+04    0.84518E-07   -0.23308E-06  3616   0.110E-03    0.579E-03
DAV:   7    -0.322132465759E+04   -0.25005E-06   -0.78847E-07  2952   0.605E-04    0.195E-03
DAV:   8    -0.322132465775E+04   -0.16404E-06   -0.11695E-07  2040   0.252E-04    0.942E-04
DAV:   9    -0.322132465776E+04   -0.11147E-07   -0.31625E-08  1928   0.143E-04
    7 T=   280. E= -.32645186E+04 F= -.32922409E+04 E0= -.32922409E+04  EK= 0.27722E+02 SP= 0.00E+00 SK= 0.00E+00
       N       E                     dE             d eps       ncg     rms          rms(c)
DAV:   1    -0.322124318338E+04    0.81474E-01   -0.11364E-02  4620   0.602E-01    0.833E-02
DAV:   2    -0.322124495175E+04   -0.17684E-02   -0.17812E-02  3808   0.916E-02    0.721E-02
DAV:   3    -0.322124493139E+04    0.20360E-04   -0.19878E-04  4448   0.935E-03    0.540E-02
DAV:   4    -0.322124491675E+04    0.14631E-04   -0.87580E-05  4032   0.617E-03    0.255E-02
DAV:   5    -0.322124491863E+04   -0.18733E-05   -0.12119E-05  3792   0.238E-03    0.145E-02
DAV:   6    -0.322124491971E+04   -0.10809E-05   -0.22726E-06  3640   0.115E-03    0.442E-03
DAV:   7    -0.322124492024E+04   -0.53071E-06   -0.68167E-07  2912   0.543E-04    0.196E-03
DAV:   8    -0.322124492039E+04   -0.14802E-06   -0.72544E-08  1984   0.208E-04    0.105E-03
DAV:   9    -0.322124492049E+04   -0.10373E-06   -0.55091E-08  1944   0.165E-04    0.297E-04
DAV:  10    -0.322124492051E+04   -0.16269E-07   -0.11361E-08  1896   0.795E-05
    8 T=   279. E= -.32645196E+04 F= -.32921653E+04 E0= -.32921653E+04  EK= 0.27646E+02 SP= 0.00E+00 SK= 0.00E+00
       N       E                     dE             d eps       ncg     rms          rms(c)
DAV:   1    -0.322114310753E+04    0.10181E+00   -0.18335E-02  4236   0.605E-01    0.911E-02
DAV:   2    -0.322114526747E+04   -0.21599E-02   -0.21791E-02  3680   0.101E-01    0.803E-02
DAV:   3    -0.322114523358E+04    0.33886E-04   -0.25866E-04  4432   0.105E-02    0.598E-02
DAV:   4    -0.322114520984E+04    0.23736E-04   -0.16557E-04  4048   0.773E-03    0.263E-02
DAV:   5    -0.322114521285E+04   -0.30025E-05   -0.19463E-05  3720   0.297E-03    0.165E-02
DAV:   6    -0.322114521464E+04   -0.17936E-05   -0.36677E-06  3744   0.139E-03    0.561E-03
DAV:   7    -0.322114521557E+04   -0.92710E-06   -0.84953E-07  2872   0.633E-04    0.195E-03
DAV:   8    -0.322114521574E+04   -0.17107E-06   -0.10624E-07  2072   0.233E-04    0.983E-04
DAV:   9    -0.322114521588E+04   -0.13948E-06   -0.39529E-08  1944   0.153E-04    0.292E-04
DAV:  10    -0.322114521590E+04   -0.25801E-07   -0.15464E-08  1896   0.893E-05
    9 T=   278. E= -.32645191E+04 F= -.32920703E+04 E0= -.32920703E+04  EK= 0.27551E+02 SP= 0.00E+00 SK= 0.00E+00
       N       E                     dE             d eps       ncg     rms          rms(c)
DAV:   1    -0.322102963809E+04    0.11558E+00   -0.17329E-02  4468   0.598E-01    0.663E-02
DAV:   2    -0.322103170248E+04   -0.20644E-02   -0.20745E-02  3800   0.890E-02    0.852E-02
DAV:   3    -0.322103164991E+04    0.52570E-04   -0.25796E-04  4328   0.102E-02    0.691E-02
DAV:   4    -0.322103156840E+04    0.81505E-04   -0.35804E-04  4320   0.105E-02    0.298E-02
DAV:   5    -0.322103157041E+04   -0.20026E-05   -0.42393E-05  3656   0.445E-03    0.220E-02
DAV:   6    -0.322103157021E+04    0.19411E-06   -0.53579E-06  3832   0.155E-03    0.128E-02
DAV:   7    -0.322103157124E+04   -0.10270E-05   -0.58296E-06  4008   0.156E-03    0.324E-03
DAV:   8    -0.322103157166E+04   -0.41688E-06   -0.75945E-07  2696   0.605E-04    0.187E-03
DAV:   9    -0.322103157182E+04   -0.16598E-06   -0.18167E-07  2264   0.265E-04    0.123E-03
DAV:  10    -0.322103157186E+04   -0.33993E-07   -0.65881E-08  1984   0.183E-04
   10 T=   277. E= -.32645179E+04 F= -.32919609E+04 E0= -.32919609E+04  EK= 0.27443E+02 SP= 0.00E+00 SK= 0.00E+00
       N       E                     dE             d eps       ncg     rms          rms(c)
DAV:   1    -0.322091971859E+04    0.11185E+00   -0.15711E-02  4332   0.598E-01    0.802E-02
DAV:   2    -0.322092185370E+04   -0.21351E-02   -0.21335E-02  3824   0.937E-02    0.889E-02
DAV:   3    -0.322092180316E+04    0.50542E-04   -0.24954E-04  4368   0.105E-02    0.706E-02
DAV:   4    -0.322092174285E+04    0.60309E-04   -0.22093E-04  4208   0.879E-03    0.333E-02
DAV:   5    -0.322092174255E+04    0.29843E-06   -0.24911E-05  3720   0.358E-03    0.227E-02
DAV:   6    -0.322092174195E+04    0.60268E-06   -0.68135E-06  3744   0.178E-03    0.996E-03
DAV:   7    -0.322092174253E+04   -0.57701E-06   -0.25475E-06  3664   0.111E-03    0.278E-03
DAV:   8    -0.322092174263E+04   -0.10648E-06   -0.48948E-07  2592   0.488E-04    0.152E-03
DAV:   9    -0.322092174270E+04   -0.61162E-07   -0.81211E-08  1976   0.218E-04
   11 T=   276. E= -.32645170E+04 F= -.32918546E+04 E0= -.32918546E+04  EK= 0.27338E+02 SP= 0.00E+00 SK= 0.00E+00
       N       E                     dE             d eps       ncg     rms          rms(c)
DAV:   1    -0.322082936053E+04    0.92382E-01   -0.82278E-03  4640   0.594E-01    0.750E-02
DAV:   2    -0.322083098337E+04   -0.16228E-02   -0.16224E-02  3824   0.851E-02    0.718E-02
DAV:   3    -0.322083095672E+04    0.26650E-04   -0.16715E-04  4336   0.900E-03    0.555E-02
DAV:   4    -0.322083092884E+04    0.27881E-04   -0.14093E-04  4144   0.763E-03    0.250E-02
DAV:   5    -0.322083092960E+04   -0.76446E-06   -0.17568E-05  3688   0.296E-03    0.184E-02
DAV:   6    -0.322083092945E+04    0.15834E-06   -0.36597E-06  3712   0.134E-03    0.869E-03
DAV:   7    -0.322083092949E+04   -0.46959E-07   -0.13520E-06  3320   0.870E-04    0.205E-03
DAV:   8    -0.322083092940E+04    0.91488E-07   -0.26727E-07  2376   0.359E-04
   12 T=   275. E= -.32645168E+04 F= -.32917663E+04 E0= -.32917663E+04  EK= 0.27250E+02 SP= 0.00E+00 SK= 0.00E+00
       N       E                     dE             d eps       ncg     rms          rms(c)
DAV:   1    -0.322075909983E+04    0.71830E-01   -0.59656E-03  4892   0.591E-01    0.679E-02
DAV:   2    -0.322076044881E+04   -0.13490E-02   -0.13491E-02  3824   0.778E-02    0.621E-02
DAV:   3    -0.322076042937E+04    0.19438E-04   -0.13460E-04  4384   0.813E-03    0.475E-02
DAV:   4    -0.322076041086E+04    0.18515E-04   -0.14193E-04  4128   0.786E-03    0.199E-02
DAV:   5    -0.322076041172E+04   -0.86003E-06   -0.22768E-05  3656   0.324E-03    0.168E-02
DAV:   6    -0.322076041137E+04    0.34887E-06   -0.36252E-06  3728   0.113E-03    0.113E-02
DAV:   7    -0.322076041120E+04    0.17039E-06   -0.13829E-06  3416   0.106E-03    0.205E-03
DAV:   8    -0.322076041111E+04    0.82247E-07   -0.51428E-07  2760   0.465E-04
   13 T=   274. E= -.32645175E+04 F= -.32916978E+04 E0= -.32916978E+04  EK= 0.27180E+02 SP= 0.00E+00 SK= 0.00E+00
       N       E                     dE             d eps       ncg     rms          rms(c)
DAV:   1    -0.322069576656E+04    0.64645E-01   -0.90153E-03  4692   0.594E-01    0.807E-02
DAV:   2    -0.322069744580E+04   -0.16792E-02   -0.16863E-02  3816   0.858E-02    0.723E-02
DAV:   3    -0.322069741555E+04    0.30244E-04   -0.17961E-04  4336   0.909E-03    0.548E-02
DAV:   4    -0.322069739132E+04    0.24233E-04   -0.18964E-04  4256   0.860E-03    0.235E-02
DAV:   5    -0.322069739264E+04   -0.13201E-05   -0.27751E-05  3616   0.352E-03    0.193E-02
DAV:   6    -0.322069739225E+04    0.38589E-06   -0.46395E-06  3944   0.128E-03    0.124E-02
DAV:   7    -0.322069739218E+04    0.76965E-07   -0.14232E-06  3328   0.105E-03    0.231E-03
DAV:   8    -0.322069739210E+04    0.81447E-07   -0.45867E-07  2800   0.445E-04
   14 T=   274. E= -.32645178E+04 F= -.32916371E+04 E0= -.32916371E+04  EK= 0.27119E+02 SP= 0.00E+00 SK= 0.00E+00
       N       E                     dE             d eps       ncg     rms          rms(c)
DAV:   1    -0.322063017056E+04    0.67222E-01   -0.15908E-02  4516   0.597E-01    0.948E-02
DAV:   2    -0.322063229072E+04   -0.21202E-02   -0.21359E-02  3760   0.955E-02    0.886E-02
DAV:   3    -0.322063223771E+04    0.53010E-04   -0.24029E-04  4376   0.101E-02    0.675E-02
DAV:   4    -0.322063219665E+04    0.41054E-04   -0.23971E-04  4272   0.910E-03    0.300E-02
DAV:   5    -0.322063219824E+04   -0.15822E-05   -0.28465E-05  3624   0.364E-03    0.220E-02
DAV:   6    -0.322063219770E+04    0.53347E-06   -0.63395E-06  4056   0.163E-03    0.103E-02
DAV:   7    -0.322063219745E+04    0.25536E-06   -0.12264E-06  3144   0.883E-04    0.260E-03
DAV:   8    -0.322063219735E+04    0.97963E-07   -0.43148E-07  2560   0.422E-04
   15 T=   273. E= -.32645174E+04 F= -.32915753E+04 E0= -.32915753E+04  EK= 0.27058E+02 SP= 0.00E+00 SK= 0.00E+00
       N       E                     dE             d eps       ncg     rms          rms(c)
DAV:   1    -0.322056569386E+04    0.66504E-01   -0.19227E-02  4516   0.592E-01    0.939E-02
DAV:   2    -0.322056791037E+04   -0.22165E-02   -0.22375E-02  3832   0.942E-02    0.934E-02
DAV:   3    -0.322056784548E+04    0.64889E-04   -0.27501E-04  4420   0.105E-02    0.713E-02
DAV:   4    -0.322056778833E+04    0.57149E-04   -0.24228E-04  4256   0.850E-03    0.317E-02
DAV:   5    -0.322056778867E+04   -0.33413E-06   -0.22827E-05  3684   0.333E-03    0.211E-02
DAV:   6    -0.322056778737E+04    0.12956E-05   -0.60610E-06  3760   0.164E-03    0.770E-03
DAV:   7    -0.322056778709E+04    0.28023E-06   -0.96472E-07  3208   0.719E-04    0.255E-03
DAV:   8    -0.322056778698E+04    0.10936E-06   -0.24765E-07  2416   0.333E-04    0.137E-03
DAV:   9    -0.322056778689E+04    0.88927E-07   -0.33061E-08  1944   0.149E-04
   16 T=   272. E= -.32645164E+04 F= -.32915160E+04 E0= -.32915160E+04  EK= 0.27000E+02 SP= 0.00E+00 SK= 0.00E+00
       N       E                     dE             d eps       ncg     rms          rms(c)
DAV:   1    -0.322051051038E+04    0.57277E-01   -0.15586E-02  4740   0.581E-01    0.812E-02
DAV:   2    -0.322051242867E+04   -0.19183E-02   -0.19308E-02  3896   0.867E-02    0.785E-02
DAV:   3    -0.322051239182E+04    0.36854E-04   -0.24451E-04  4488   0.992E-03    0.593E-02
DAV:   4    -0.322051235449E+04    0.37324E-04   -0.12931E-04  4176   0.643E-03    0.265E-02
DAV:   5    -0.322051235434E+04    0.15623E-06   -0.13308E-05  3736   0.250E-03    0.154E-02
DAV:   6    -0.322051235373E+04    0.60175E-06   -0.25803E-06  3592   0.113E-03    0.585E-03
DAV:   7    -0.322051235372E+04    0.17913E-07   -0.57625E-07  2936   0.543E-04
   17 T=   272. E= -.32645164E+04 F= -.32914676E+04 E0= -.32914676E+04  EK= 0.26951E+02 SP= 0.00E+00 SK= 0.00E+00
       N       E                     dE             d eps       ncg     rms          rms(c)
DAV:   1    -0.322046275662E+04    0.49597E-01   -0.10248E-02  4848   0.571E-01    0.700E-02
DAV:   2    -0.322046430975E+04   -0.15531E-02   -0.15609E-02  3880   0.812E-02    0.661E-02
DAV:   3    -0.322046429443E+04    0.15322E-04   -0.18674E-04  4512   0.892E-03    0.501E-02
DAV:   4    -0.322046427929E+04    0.15142E-04   -0.51470E-05  3864   0.500E-03    0.240E-02
DAV:   5    -0.322046428043E+04   -0.11396E-05   -0.12775E-05  3832   0.240E-03    0.103E-02
DAV:   6    -0.322046428079E+04   -0.36260E-06   -0.10322E-06  3136   0.750E-04    0.502E-03
DAV:   7    -0.322046428101E+04   -0.22139E-06   -0.25490E-07  2624   0.404E-04    0.149E-03
DAV:   8    -0.322046428116E+04   -0.14200E-06   -0.54604E-08  2008   0.189E-04    0.561E-04
DAV:   9    -0.322046428121E+04   -0.54366E-07   -0.19914E-08  1944   0.112E-04
   18 T=   271. E= -.32645174E+04 F= -.32914283E+04 E0= -.32914283E+04  EK= 0.26911E+02 SP= 0.00E+00 SK= 0.00E+00
       N       E                     dE             d eps       ncg     rms          rms(c)
DAV:   1    -0.322041010528E+04    0.54176E-01   -0.12917E-02  4772   0.569E-01    0.769E-02
DAV:   2    -0.322041186014E+04   -0.17549E-02   -0.17630E-02  3848   0.877E-02    0.670E-02
DAV:   3    -0.322041184635E+04    0.13782E-04   -0.20671E-04  4456   0.941E-03    0.501E-02
DAV:   4    -0.322041183481E+04    0.11540E-04   -0.68090E-05  3928   0.549E-03    0.235E-02
DAV:   5    -0.322041183736E+04   -0.25460E-05   -0.13914E-05  3816   0.246E-03    0.117E-02
DAV:   6    -0.322041183845E+04   -0.10931E-05   -0.13308E-06  3224   0.886E-04    0.493E-03
DAV:   7    -0.322041183905E+04   -0.59426E-06   -0.35015E-07  2816   0.453E-04    0.159E-03
DAV:   8    -0.322041183927E+04   -0.22120E-06   -0.56447E-08  1968   0.189E-04    0.556E-04
DAV:   9    -0.322041183935E+04   -0.77984E-07   -0.27668E-08  1928   0.123E-04
   19 T=   271. E= -.32645184E+04 F= -.32913854E+04 E0= -.32913854E+04  EK= 0.26867E+02 SP= 0.00E+00 SK= 0.00E+00
       N       E                     dE             d eps       ncg     rms          rms(c)
DAV:   1    -0.322034189126E+04    0.69948E-01   -0.20451E-02  4788   0.572E-01    0.833E-02
DAV:   2    -0.322034403486E+04   -0.21436E-02   -0.21567E-02  3808   0.950E-02    0.758E-02
DAV:   3    -0.322034400622E+04    0.28640E-04   -0.26614E-04  4416   0.106E-02    0.566E-02
DAV:   4    -0.322034398295E+04    0.23275E-04   -0.16269E-04  4256   0.771E-03    0.243E-02
DAV:   5    -0.322034398652E+04   -0.35761E-05   -0.21296E-05  3752   0.311E-03    0.155E-02
DAV:   6    -0.322034398799E+04   -0.14671E-05   -0.32949E-06  3624   0.132E-03    0.681E-03
DAV:   7    -0.322034398913E+04   -0.11436E-05   -0.93884E-07  2968   0.712E-04    0.189E-03
DAV:   8    -0.322034398937E+04   -0.23853E-06   -0.11722E-07  2088   0.257E-04    0.923E-04
DAV:   9    -0.322034398951E+04   -0.13717E-06   -0.37641E-08  1936   0.149E-04    0.335E-04
DAV:  10    -0.322034398954E+04   -0.29890E-07   -0.21200E-08  1888   0.111E-04
   20 T=   270. E= -.32645181E+04 F= -.32913270E+04 E0= -.32913270E+04  EK= 0.26809E+02 SP= 0.00E+00 SK= 0.00E+00
       N       E                     dE             d eps       ncg     rms          rms(c)
DAV:   1    -0.322026202415E+04    0.81965E-01   -0.20256E-02  4596   0.569E-01    0.707E-02
DAV:   2    -0.322026409094E+04   -0.20668E-02   -0.20748E-02  3832   0.878E-02    0.827E-02
DAV:   3    -0.322026404423E+04    0.46708E-04   -0.26461E-04  4432   0.104E-02    0.656E-02
DAV:   4    -0.322026398228E+04    0.61948E-04   -0.28614E-04  4272   0.966E-03    0.283E-02
DAV:   5    -0.322026398448E+04   -0.21960E-05   -0.31289E-05  3704   0.394E-03    0.201E-02
DAV:   6    -0.322026398494E+04   -0.45782E-06   -0.59276E-06  3848   0.163E-03    0.102E-02
DAV:   7    -0.322026398616E+04   -0.12204E-05   -0.31937E-06  3704   0.123E-03    0.286E-03
DAV:   8    -0.322026398648E+04   -0.31698E-06   -0.65610E-07  2632   0.555E-04    0.156E-03
DAV:   9    -0.322026398660E+04   -0.12605E-06   -0.10697E-07  2088   0.235E-04    0.963E-04
DAV:  10    -0.322026398662E+04   -0.18437E-07   -0.85001E-08  1984   0.206E-04
   21 T=   270. E= -.32645168E+04 F= -.32912553E+04 E0= -.32912553E+04  EK= 0.26738E+02 SP= 0.00E+00 SK= 0.00E+00
       N       E                     dE             d eps       ncg     rms          rms(c)
DAV:   1    -0.322018513801E+04    0.78849E-01   -0.17785E-02  4212   0.569E-01    0.806E-02
DAV:   2    -0.322018717410E+04   -0.20361E-02   -0.20322E-02  3848   0.898E-02    0.847E-02
DAV:   3    -0.322018713332E+04    0.40775E-04   -0.25300E-04  4448   0.105E-02    0.663E-02
DAV:   4    -0.322018708889E+04    0.44427E-04   -0.18541E-04  4168   0.819E-03    0.306E-02
DAV:   5    -0.322018708960E+04   -0.70866E-06   -0.19827E-05  3736   0.322E-03    0.200E-02
DAV:   6    -0.322018708997E+04   -0.36521E-06   -0.53450E-06  3752   0.160E-03    0.793E-03
DAV:   7    -0.322018709055E+04   -0.57982E-06   -0.14760E-06  3512   0.853E-04    0.233E-03
DAV:   8    -0.322018709056E+04   -0.14494E-07   -0.29216E-07  2424   0.379E-04
   22 T=   269. E= -.32645154E+04 F= -.32911849E+04 E0= -.32911849E+04  EK= 0.26669E+02 SP= 0.00E+00 SK= 0.00E+00
       N       E                     dE             d eps       ncg     rms          rms(c)
DAV:   1    -0.322012786312E+04    0.59227E-01   -0.11951E-02  4620   0.566E-01    0.754E-02
DAV:   2    -0.322012949536E+04   -0.16322E-02   -0.16287E-02  3888   0.833E-02    0.690E-02
DAV:   3    -0.322012947658E+04    0.18773E-04   -0.19355E-04  4472   0.950E-03    0.528E-02
DAV:   4    -0.322012945710E+04    0.19479E-04   -0.11290E-04  4128   0.697E-03    0.239E-02
DAV:   5    -0.322012945809E+04   -0.98994E-06   -0.14641E-05  3752   0.272E-03    0.162E-02
DAV:   6    -0.322012945836E+04   -0.27150E-06   -0.30001E-06  3728   0.125E-03    0.719E-03
DAV:   7    -0.322012945848E+04   -0.11988E-06   -0.86970E-07  3152   0.721E-04    0.183E-03
DAV:   8    -0.322012945835E+04    0.13263E-06   -0.16711E-07  2216   0.293E-04    0.102E-03
DAV:   9    -0.322012945827E+04    0.86133E-07   -0.30411E-08  1960   0.146E-04
   23 T=   268. E= -.32645160E+04 F= -.32911319E+04 E0= -.32911319E+04  EK= 0.26616E+02 SP= 0.00E+00 SK= 0.00E+00
       N       E                     dE             d eps       ncg     rms          rms(c)
DAV:   1    -0.322008843211E+04    0.41026E-01   -0.89669E-03  4784   0.565E-01    0.688E-02
DAV:   2    -0.322008983981E+04   -0.14077E-02   -0.14041E-02  3896   0.772E-02    0.611E-02
DAV:   3    -0.322008982461E+04    0.15194E-04   -0.16546E-04  4456   0.882E-03    0.464E-02
DAV:   4    -0.322008981017E+04    0.14448E-04   -0.11307E-04  4208   0.705E-03    0.201E-02
DAV:   5    -0.322008981111E+04   -0.94694E-06   -0.16631E-05  3688   0.283E-03    0.153E-02
DAV:   6    -0.322008981113E+04   -0.18219E-07   -0.34663E-06  3832   0.119E-03    0.855E-03
DAV:   7    -0.322008981115E+04   -0.18117E-07   -0.10931E-06  3112   0.904E-04    0.172E-03
DAV:   8    -0.322008981108E+04    0.69442E-07   -0.40719E-07  2536   0.415E-04
   24 T=   268. E= -.32645166E+04 F= -.32910953E+04 E0= -.32910953E+04  EK= 0.26579E+02 SP= 0.00E+00 SK= 0.00E+00
       N       E                     dE             d eps       ncg     rms          rms(c)
DAV:   1    -0.322005667471E+04    0.33136E-01   -0.12092E-02  4620   0.568E-01    0.774E-02
DAV:   2    -0.322005829307E+04   -0.16184E-02   -0.16275E-02  3832   0.832E-02    0.708E-02
DAV:   3    -0.322005826572E+04    0.27356E-04   -0.19246E-04  4412   0.929E-03    0.540E-02
DAV:   4    -0.322005824343E+04    0.22286E-04   -0.14368E-04  4280   0.750E-03    0.246E-02
DAV:   5    -0.322005824468E+04   -0.12530E-05   -0.19797E-05  3668   0.305E-03    0.176E-02
DAV:   6    -0.322005824443E+04    0.24735E-06   -0.46134E-06  4008   0.143E-03    0.825E-03
DAV:   7    -0.322005824436E+04    0.73996E-07   -0.10414E-06  3088   0.822E-04    0.209E-03
DAV:   8    -0.322005824427E+04    0.94908E-07   -0.27003E-07  2416   0.350E-04
   25 T=   268. E= -.32645171E+04 F= -.32910659E+04 E0= -.32910659E+04  EK= 0.26549E+02 SP= 0.00E+00 SK= 0.00E+00
       N       E                     dE             d eps       ncg     rms          rms(c)
DAV:   1    -0.322002616242E+04    0.32082E-01   -0.18924E-02  4472   0.570E-01    0.886E-02
DAV:   2    -0.322002807103E+04   -0.19086E-02   -0.19324E-02  3832   0.898E-02    0.843E-02
DAV:   3    -0.322002802133E+04    0.49699E-04   -0.24237E-04  4416   0.100E-02    0.644E-02
DAV:   4    -0.322002798221E+04    0.39116E-04   -0.17699E-04  4288   0.782E-03    0.296E-02
DAV:   5    -0.322002798270E+04   -0.48538E-06   -0.21727E-05  3704   0.323E-03    0.184E-02
DAV:   6    -0.322002798211E+04    0.59461E-06   -0.60803E-06  3920   0.168E-03    0.636E-03
DAV:   7    -0.322002798191E+04    0.19441E-06   -0.97547E-07  3056   0.709E-04    0.238E-03
DAV:   8    -0.322002798179E+04    0.12135E-06   -0.22234E-07  2368   0.317E-04    0.139E-03
DAV:   9    -0.322002798164E+04    0.14655E-06   -0.32469E-08  1904   0.155E-04    0.388E-04
DAV:  10    -0.322002798161E+04    0.28173E-07   -0.24234E-08  1888   0.100E-04
   26 T=   268. E= -.32645165E+04 F= -.32910377E+04 E0= -.32910377E+04  EK= 0.26521E+02 SP= 0.00E+00 SK= 0.00E+00
       N       E                     dE             d eps       ncg     rms          rms(c)
DAV:   1    -0.322000294859E+04    0.25033E-01   -0.18836E-02  4308   0.564E-01    0.834E-02
DAV:   2    -0.322000480259E+04   -0.18540E-02   -0.18769E-02  3848   0.872E-02    0.863E-02
DAV:   3    -0.322000474637E+04    0.56213E-04   -0.23799E-04  4440   0.976E-03    0.666E-02
DAV:   4    -0.322000469355E+04    0.52827E-04   -0.18234E-04  4248   0.742E-03    0.299E-02
DAV:   5    -0.322000469255E+04    0.99606E-06   -0.20484E-05  3720   0.311E-03    0.174E-02
DAV:   6    -0.322000469148E+04    0.10735E-05   -0.44578E-06  3720   0.143E-03    0.625E-03
DAV:   7    -0.322000469120E+04    0.27938E-06   -0.73977E-07  3040   0.610E-04    0.221E-03
DAV:   8    -0.322000469107E+04    0.12852E-06   -0.11079E-07  2208   0.250E-04    0.106E-03
DAV:   9    -0.322000469097E+04    0.97352E-07   -0.23761E-08  1920   0.126E-04
   27 T=   267. E= -.32645157E+04 F= -.32910170E+04 E0= -.32910170E+04  EK= 0.26501E+02 SP= 0.00E+00 SK= 0.00E+00
       N       E                     dE             d eps       ncg     rms          rms(c)
DAV:   1    -0.321999470196E+04    0.99891E-02   -0.12651E-02  4292   0.555E-01    0.700E-02
DAV:   2    -0.321999628216E+04   -0.15802E-02   -0.15886E-02  3848   0.819E-02    0.742E-02
DAV:   3    -0.321999624760E+04    0.34558E-04   -0.18985E-04  4424   0.904E-03    0.576E-02
DAV:   4    -0.321999621065E+04    0.36953E-04   -0.11939E-04  4144   0.643E-03    0.259E-02
DAV:   5    -0.321999621026E+04    0.38717E-06   -0.14947E-05  3760   0.266E-03    0.148E-02
DAV:   6    -0.321999620971E+04    0.55166E-06   -0.20734E-06  3528   0.103E-03    0.650E-03
DAV:   7    -0.321999620959E+04    0.12504E-06   -0.66642E-07  3024   0.608E-04    0.164E-03
DAV:   8    -0.321999620960E+04   -0.16211E-07   -0.81997E-08  2032   0.221E-04
   28 T=   267. E= -.32645159E+04 F= -.32910119E+04 E0= -.32910119E+04  EK= 0.26496E+02 SP= 0.00E+00 SK= 0.00E+00
       N       E                     dE             d eps       ncg     rms          rms(c)
DAV:   1    -0.321999984616E+04   -0.36366E-02   -0.93143E-03  4540   0.550E-01    0.630E-02
DAV:   2    -0.322000122378E+04   -0.13776E-02   -0.13805E-02  3864   0.793E-02    0.642E-02
DAV:   3    -0.322000120615E+04    0.17631E-04   -0.15308E-04  4428   0.833E-03    0.497E-02
DAV:   4    -0.322000118803E+04    0.18124E-04   -0.61415E-05  3992   0.545E-03    0.233E-02
DAV:   5    -0.322000118878E+04   -0.75629E-06   -0.14008E-05  3824   0.251E-03    0.117E-02
DAV:   6    -0.322000118903E+04   -0.24161E-06   -0.12352E-06  3328   0.849E-04    0.561E-03
DAV:   7    -0.322000118929E+04   -0.26543E-06   -0.45669E-07  2864   0.521E-04    0.168E-03
DAV:   8    -0.322000118944E+04   -0.14871E-06   -0.81787E-08  1976   0.226E-04    0.660E-04
DAV:   9    -0.322000118949E+04   -0.52474E-07   -0.42974E-08  1928   0.147E-04
   29 T=   267. E= -.32645170E+04 F= -.32910208E+04 E0= -.32910208E+04  EK= 0.26504E+02 SP= 0.00E+00 SK= 0.00E+00
       N       E                     dE             d eps       ncg     rms          rms(c)
DAV:   1    -0.322000617497E+04   -0.49855E-02   -0.12317E-02  4476   0.554E-01    0.719E-02
DAV:   2    -0.322000778476E+04   -0.16098E-02   -0.16181E-02  3832   0.866E-02    0.672E-02
DAV:   3    -0.322000776647E+04    0.18290E-04   -0.18289E-04  4432   0.904E-03    0.511E-02
DAV:   4    -0.322000774948E+04    0.16990E-04   -0.77740E-05  4016   0.585E-03    0.241E-02
DAV:   5    -0.322000775134E+04   -0.18632E-05   -0.18188E-05  3832   0.278E-03    0.125E-02
DAV:   6    -0.322000775219E+04   -0.84366E-06   -0.15275E-06  3336   0.931E-04    0.626E-03
DAV:   7    -0.322000775288E+04   -0.69459E-06   -0.49551E-07  2880   0.547E-04    0.181E-03
DAV:   8    -0.322000775309E+04   -0.20523E-06   -0.10011E-07  2032   0.234E-04    0.840E-04
DAV:   9    -0.322000775320E+04   -0.11337E-06   -0.38662E-08  1912   0.146E-04    0.361E-04
DAV:  10    -0.322000775321E+04   -0.74360E-08   -0.80514E-09  1888   0.688E-05
   30 T=   267. E= -.32645177E+04 F= -.32910315E+04 E0= -.32910315E+04  EK= 0.26514E+02 SP= 0.00E+00 SK= 0.00E+00
       N       E                     dE             d eps       ncg     rms          rms(c)
DAV:   1    -0.322000353091E+04    0.42223E-02   -0.19680E-02  4388   0.564E-01    0.810E-02
DAV:   2    -0.322000553589E+04   -0.20050E-02   -0.20208E-02  3792   0.949E-02    0.766E-02
DAV:   3    -0.322000550100E+04    0.34891E-04   -0.23980E-04  4216   0.103E-02    0.578E-02
DAV:   4    -0.322000547070E+04    0.30299E-04   -0.16716E-04  4168   0.780E-03    0.251E-02
DAV:   5    -0.322000547364E+04   -0.29452E-05   -0.24425E-05  3784   0.327E-03    0.157E-02
DAV:   6    -0.322000547486E+04   -0.12200E-05   -0.28988E-06  3728   0.127E-03    0.724E-03
DAV:   7    -0.322000547589E+04   -0.10321E-05   -0.11775E-06  3032   0.767E-04    0.200E-03
DAV:   8    -0.322000547610E+04   -0.20428E-06   -0.15325E-07  2192   0.275E-04    0.104E-03
DAV:   9    -0.322000547621E+04   -0.11630E-06   -0.43298E-08  1928   0.153E-04    0.384E-04
DAV:  10    -0.322000547624E+04   -0.24476E-07   -0.21892E-08  1896   0.110E-04
   31 T=   267. E= -.32645180E+04 F= -.32910330E+04 E0= -.32910330E+04  EK= 0.26515E+02 SP= 0.00E+00 SK= 0.00E+00
       N       E                     dE             d eps       ncg     rms          rms(c)
DAV:   1    -0.321999338468E+04    0.12092E-01   -0.18079E-02  4356   0.564E-01    0.706E-02
DAV:   2    -0.321999532306E+04   -0.19384E-02   -0.19495E-02  3784   0.877E-02    0.828E-02
DAV:   3    -0.321999526976E+04    0.53306E-04   -0.23684E-04  4216   0.992E-03    0.656E-02
DAV:   4    -0.321999520280E+04    0.66952E-04   -0.31062E-04  4232   0.981E-03    0.272E-02
DAV:   5    -0.321999520502E+04   -0.22135E-05   -0.32052E-05  3648   0.395E-03    0.198E-02
DAV:   6    -0.321999520549E+04   -0.47591E-06   -0.54722E-06  3856   0.157E-03    0.101E-02
DAV:   7    -0.321999520671E+04   -0.12217E-05   -0.31131E-06  3712   0.120E-03    0.273E-03
DAV:   8    -0.321999520700E+04   -0.28469E-06   -0.55931E-07  2576   0.510E-04    0.149E-03
DAV:   9    -0.321999520711E+04   -0.11419E-06   -0.91845E-08  1984   0.214E-04    0.865E-04
DAV:  10    -0.321999520713E+04   -0.14828E-07   -0.59427E-08  1960   0.176E-04
   32 T=   267. E= -.32645172E+04 F= -.32910254E+04 E0= -.32910254E+04  EK= 0.26508E+02 SP= 0.00E+00 SK= 0.00E+00
       N       E                     dE             d eps       ncg     rms          rms(c)
DAV:   1    -0.321998681549E+04    0.83916E-02   -0.14709E-02  4284   0.566E-01    0.814E-02
DAV:   2    -0.321998872053E+04   -0.19050E-02   -0.19020E-02  3816   0.887E-02    0.829E-02
DAV:   3    -0.321998867739E+04    0.43139E-04   -0.22445E-04  4384   0.996E-03    0.641E-02
DAV:   4    -0.321998863206E+04    0.45330E-04   -0.20387E-04  4160   0.835E-03    0.275E-02
DAV:   5    -0.321998863300E+04   -0.93991E-06   -0.20195E-05  3664   0.322E-03    0.190E-02
DAV:   6    -0.321998863319E+04   -0.18950E-06   -0.45666E-06  3784   0.146E-03    0.864E-03
DAV:   7    -0.321998863374E+04   -0.55127E-06   -0.13208E-06  3208   0.835E-04    0.231E-03
DAV:   8    -0.321998863382E+04   -0.73356E-07   -0.32905E-07  2504   0.395E-04
   33 T=   267. E= -.32645164E+04 F= -.32910204E+04 E0= -.32910204E+04  EK= 0.26504E+02 SP= 0.00E+00 SK= 0.00E+00
       N       E                     dE             d eps       ncg     rms          rms(c)
DAV:   1    -0.321999397319E+04   -0.53395E-02   -0.96132E-03  4628   0.564E-01    0.835E-02
DAV:   2    -0.321999556297E+04   -0.15898E-02   -0.15879E-02  3848   0.846E-02    0.699E-02
DAV:   3    -0.321999554521E+04    0.17756E-04   -0.16407E-04  4320   0.892E-03    0.525E-02
DAV:   4    -0.321999552586E+04    0.19353E-04   -0.10548E-04  4088   0.684E-03    0.216E-02
DAV:   5    -0.321999552663E+04   -0.77405E-06   -0.16133E-05  3712   0.277E-03    0.146E-02
DAV:   6    -0.321999552651E+04    0.12766E-06   -0.30054E-06  3640   0.112E-03    0.825E-03
DAV:   7    -0.321999552654E+04   -0.38417E-07   -0.53083E-07  2856   0.635E-04
   34 T=   267. E= -.32645163E+04 F= -.32910278E+04 E0= -.32910278E+04  EK= 0.26512E+02 SP= 0.00E+00 SK= 0.00E+00
       N       E                     dE             d eps       ncg     rms          rms(c)
DAV:   1    -0.322001295970E+04   -0.17433E-01   -0.76701E-03  4960   0.563E-01    0.773E-02
DAV:   2    -0.322001434778E+04   -0.13881E-02   -0.13894E-02  3848   0.789E-02    0.631E-02
DAV:   3    -0.322001433520E+04    0.12581E-04   -0.13809E-04  4288   0.823E-03    0.476E-02
DAV:   4    -0.322001432041E+04    0.14788E-04   -0.85893E-05  4144   0.626E-03    0.203E-02
DAV:   5    -0.322001432098E+04   -0.57110E-06   -0.15049E-05  3736   0.262E-03    0.140E-02
DAV:   6    -0.322001432060E+04    0.38475E-06   -0.26936E-06  3544   0.104E-03    0.827E-03
DAV:   7    -0.322001432045E+04    0.15378E-06   -0.49845E-07  2920   0.654E-04    0.191E-03
DAV:   8    -0.322001432034E+04    0.10279E-06   -0.19384E-07  2224   0.310E-04    0.101E-03
DAV:   9    -0.322001432028E+04    0.61584E-07   -0.37406E-08  1920   0.148E-04
   35 T=   268. E= -.32645171E+04 F= -.32910466E+04 E0= -.32910466E+04  EK= 0.26530E+02 SP= 0.00E+00 SK= 0.00E+00
       N       E                     dE             d eps       ncg     rms          rms(c)
DAV:   1    -0.322003308670E+04   -0.18766E-01   -0.10968E-02  4820   0.564E-01    0.842E-02
DAV:   2    -0.322003471764E+04   -0.16309E-02   -0.16404E-02  3832   0.838E-02    0.713E-02
DAV:   3    -0.322003469198E+04    0.25660E-04   -0.17760E-04  4232   0.900E-03    0.539E-02
DAV:   4    -0.322003466892E+04    0.23060E-04   -0.11544E-04  4224   0.668E-03    0.246E-02
DAV:   5    -0.322003466938E+04   -0.46034E-06   -0.16405E-05  3736   0.276E-03    0.162E-02
DAV:   6    -0.322003466890E+04    0.47620E-06   -0.30428E-06  3736   0.119E-03    0.759E-03
DAV:   7    -0.322003466873E+04    0.16956E-06   -0.63682E-07  2944   0.636E-04    0.201E-03
DAV:   8    -0.322003466864E+04    0.95606E-07   -0.13947E-07  2160   0.267E-04
   36 T=   268. E= -.32645173E+04 F= -.32910674E+04 E0= -.32910674E+04  EK= 0.26550E+02 SP= 0.00E+00 SK= 0.00E+00
       N       E                     dE             d eps       ncg     rms          rms(c)
DAV:   1    -0.322005196528E+04   -0.17297E-01   -0.17584E-02  4716   0.566E-01    0.885E-02
DAV:   2    -0.322005387433E+04   -0.19091E-02   -0.19325E-02  3872   0.881E-02    0.832E-02
DAV:   3    -0.322005382925E+04    0.45083E-04   -0.23494E-04  4344   0.979E-03    0.634E-02
DAV:   4    -0.322005379104E+04    0.38209E-04   -0.15205E-04  4200   0.705E-03    0.299E-02
DAV:   5    -0.322005379052E+04    0.52653E-06   -0.18102E-05  3776   0.296E-03    0.180E-02
DAV:   6    -0.322005378943E+04    0.10907E-05   -0.43397E-06  3744   0.144E-03    0.639E-03
DAV:   7    -0.322005378913E+04    0.29235E-06   -0.72888E-07  3032   0.621E-04    0.219E-03
DAV:   8    -0.322005378900E+04    0.13350E-06   -0.11219E-07  2184   0.252E-04    0.120E-03
DAV:   9    -0.322005378888E+04    0.12183E-06   -0.24634E-08  1952   0.133E-04    0.355E-04
DAV:  10    -0.322005378885E+04    0.25902E-07   -0.16553E-08  1896   0.860E-05
   37 T=   268. E= -.32645170E+04 F= -.32910881E+04 E0= -.32910881E+04  EK= 0.26571E+02 SP= 0.00E+00 SK= 0.00E+00
       N       E                     dE             d eps       ncg     rms          rms(c)
DAV:   1    -0.322007692267E+04   -0.23134E-01   -0.19688E-02  4596   0.561E-01    0.814E-02
DAV:   2    -0.322007883045E+04   -0.19078E-02   -0.19317E-02  3864   0.851E-02    0.835E-02
DAV:   3    -0.322007877909E+04    0.51359E-04   -0.25161E-04  4424   0.994E-03    0.643E-02
DAV:   4    -0.322007872839E+04    0.50695E-04   -0.16995E-04  4248   0.707E-03    0.293E-02
DAV:   5    -0.322007872693E+04    0.14659E-05   -0.17372E-05  3736   0.289E-03    0.172E-02
DAV:   6    -0.322007872538E+04    0.15471E-05   -0.36241E-06  3656   0.128E-03    0.620E-03
DAV:   7    -0.322007872502E+04    0.36499E-06   -0.77110E-07  3120   0.621E-04    0.184E-03
DAV:   8    -0.322007872495E+04    0.68321E-07   -0.84230E-08  2168   0.227E-04
   38 T=   268. E= -.32645158E+04 F= -.32911164E+04 E0= -.32911164E+04  EK= 0.26601E+02 SP= 0.00E+00 SK= 0.00E+00
       N       E                     dE             d eps       ncg     rms          rms(c)
DAV:   1    -0.322011860400E+04   -0.39879E-01   -0.13853E-02  4704   0.556E-01    0.693E-02
DAV:   2    -0.322012027626E+04   -0.16723E-02   -0.16846E-02  3888   0.807E-02    0.718E-02
DAV:   3    -0.322012024503E+04    0.31231E-04   -0.21257E-04  4360   0.958E-03    0.554E-02
DAV:   4    -0.322012020783E+04    0.37204E-04   -0.11706E-04  4128   0.650E-03    0.244E-02
DAV:   5    -0.322012020718E+04    0.64822E-06   -0.15983E-05  3784   0.272E-03    0.142E-02
DAV:   6    -0.322012020644E+04    0.74058E-06   -0.16765E-06  3488   0.961E-04    0.692E-03
DAV:   7    -0.322012020622E+04    0.22366E-06   -0.79446E-07  3200   0.688E-04    0.144E-03
DAV:   8    -0.322012020627E+04   -0.58353E-07   -0.12385E-07  2128   0.258E-04
   39 T=   269. E= -.32645156E+04 F= -.32911634E+04 E0= -.32911634E+04  EK= 0.26648E+02 SP= 0.00E+00 SK= 0.00E+00
       N       E                     dE             d eps       ncg     rms          rms(c)
DAV:   1    -0.322017738032E+04   -0.57174E-01   -0.11116E-02  4932   0.553E-01    0.636E-02
DAV:   2    -0.322017888870E+04   -0.15084E-02   -0.15137E-02  3912   0.773E-02    0.630E-02
DAV:   3    -0.322017887335E+04    0.15352E-04   -0.18189E-04  4432   0.903E-03    0.488E-02
DAV:   4    -0.322017885216E+04    0.21182E-04   -0.61029E-05  3984   0.556E-03    0.223E-02
DAV:   5    -0.322017885210E+04    0.64800E-07   -0.16664E-05  3816   0.270E-03    0.110E-02
DAV:   6    -0.322017885213E+04   -0.28842E-07   -0.12269E-06  3328   0.850E-04    0.576E-03
DAV:   7    -0.322017885241E+04   -0.28427E-06   -0.50289E-07  2936   0.563E-04    0.157E-03
DAV:   8    -0.322017885256E+04   -0.14334E-06   -0.11570E-07  2056   0.261E-04    0.708E-04
DAV:   9    -0.322017885262E+04   -0.62457E-07   -0.38758E-08  1936   0.146E-04
   40 T=   269. E= -.32645162E+04 F= -.32912294E+04 E0= -.32912294E+04  EK= 0.26713E+02 SP= 0.00E+00 SK= 0.00E+00
       N       E                     dE             d eps       ncg     rms          rms(c)
DAV:   1    -0.322024417070E+04   -0.65318E-01   -0.96194E-03  4560   0.557E-01    0.629E-02
DAV:   2    -0.322024566748E+04   -0.14968E-02   -0.15035E-02  3896   0.782E-02    0.655E-02
DAV:   3    -0.322024564525E+04    0.22235E-04   -0.16884E-04  4232   0.871E-03    0.510E-02
DAV:   4    -0.322024561913E+04    0.26120E-04   -0.10334E-04  4152   0.671E-03    0.228E-02
DAV:   5    -0.322024561989E+04   -0.76168E-06   -0.20375E-05  3784   0.299E-03    0.141E-02
DAV:   6    -0.322024562020E+04   -0.30961E-06   -0.21471E-06  3472   0.112E-03    0.720E-03
DAV:   7    -0.322024562099E+04   -0.78976E-06   -0.12552E-06  3096   0.820E-04    0.187E-03
DAV:   8    -0.322024562119E+04   -0.19670E-06   -0.18990E-07  2256   0.310E-04    0.105E-03
DAV:   9    -0.322024562131E+04   -0.12649E-06   -0.44759E-08  1936   0.153E-04    0.336E-04
DAV:  10    -0.322024562132E+04   -0.40163E-08   -0.14715E-08  1896   0.963E-05
   41 T=   270. E= -.32645166E+04 F= -.32913047E+04 E0= -.32913047E+04  EK= 0.26788E+02 SP= 0.00E+00 SK= 0.00E+00
       N       E                     dE             d eps       ncg     rms          rms(c)
DAV:   1    -0.322031036927E+04   -0.64748E-01   -0.13683E-02  4680   0.566E-01    0.693E-02
DAV:   2    -0.322031209873E+04   -0.17295E-02   -0.17390E-02  3864   0.822E-02    0.732E-02
DAV:   3    -0.322031206157E+04    0.37157E-04   -0.20828E-04  4216   0.941E-03    0.568E-02
DAV:   4    -0.322031202113E+04    0.40439E-04   -0.20664E-04  4184   0.871E-03    0.237E-02
DAV:   5    -0.322031202306E+04   -0.19227E-05   -0.25869E-05  3712   0.356E-03    0.172E-02
DAV:   6    -0.322031202346E+04   -0.40319E-06   -0.37646E-06  3752   0.136E-03    0.929E-03
DAV:   7    -0.322031202459E+04   -0.11255E-05   -0.26364E-06  3448   0.114E-03    0.241E-03
DAV:   8    -0.322031202485E+04   -0.26944E-06   -0.32079E-07  2464   0.411E-04    0.141E-03
DAV:   9    -0.322031202497E+04   -0.11444E-06   -0.10198E-07  2048   0.209E-04    0.701E-04
DAV:  10    -0.322031202499E+04   -0.17535E-07   -0.27536E-08  1904   0.143E-04
   42 T=   271. E= -.32645167E+04 F= -.32913801E+04 E0= -.32913801E+04  EK= 0.26863E+02 SP= 0.00E+00 SK= 0.00E+00
       N       E                     dE             d eps       ncg     rms          rms(c)
DAV:   1    -0.322037556733E+04   -0.63542E-01   -0.15112E-02  4252   0.574E-01    0.721E-02
DAV:   2    -0.322037732865E+04   -0.17613E-02   -0.17700E-02  3848   0.818E-02    0.807E-02
DAV:   3    -0.322037727876E+04    0.49886E-04   -0.21186E-04  4200   0.939E-03    0.632E-02
DAV:   4    -0.322037722188E+04    0.56883E-04   -0.31247E-04  4208   0.102E-02    0.253E-02
DAV:   5    -0.322037722394E+04   -0.20554E-05   -0.29242E-05  3648   0.396E-03    0.197E-02
DAV:   6    -0.322037722409E+04   -0.15511E-06   -0.54644E-06  4024   0.155E-03    0.105E-02
DAV:   7    -0.322037722516E+04   -0.10687E-05   -0.32715E-06  3752   0.127E-03    0.306E-03
DAV:   8    -0.322037722545E+04   -0.29491E-06   -0.57498E-07  2560   0.524E-04    0.155E-03
DAV:   9    -0.322037722552E+04   -0.70373E-07   -0.15941E-07  2224   0.255E-04
   43 T=   272. E= -.32645162E+04 F= -.32914540E+04 E0= -.32914540E+04  EK= 0.26938E+02 SP= 0.00E+00 SK= 0.00E+00
       N       E                     dE             d eps       ncg     rms          rms(c)
DAV:   1    -0.322044704672E+04   -0.69821E-01   -0.13332E-02  4592   0.579E-01    0.836E-02
DAV:   2    -0.322044885610E+04   -0.18094E-02   -0.18125E-02  3856   0.845E-02    0.814E-02
DAV:   3    -0.322044881482E+04    0.41282E-04   -0.20837E-04  4328   0.964E-03    0.621E-02
DAV:   4    -0.322044877465E+04    0.40172E-04   -0.21928E-04  4200   0.886E-03    0.249E-02
DAV:   5    -0.322044877589E+04   -0.12435E-05   -0.21279E-05  3704   0.333E-03    0.188E-02
DAV:   6    -0.322044877596E+04   -0.71217E-07   -0.40268E-06  3968   0.138E-03    0.101E-02
DAV:   7    -0.322044877658E+04   -0.61936E-06   -0.11469E-06  3304   0.881E-04    0.247E-03
DAV:   8    -0.322044877669E+04   -0.10137E-06   -0.23575E-07  2320   0.351E-04    0.119E-03
DAV:   9    -0.322044877665E+04    0.32858E-07   -0.40531E-08  1936   0.148E-04
   44 T=   273. E= -.32645159E+04 F= -.32915336E+04 E0= -.32915336E+04  EK= 0.27018E+02 SP= 0.00E+00 SK= 0.00E+00
       N       E                     dE             d eps       ncg     rms          rms(c)
DAV:   1    -0.322053179051E+04   -0.83014E-01   -0.10780E-02  5000   0.580E-01    0.861E-02
DAV:   2    -0.322053342947E+04   -0.16390E-02   -0.16425E-02  3872   0.813E-02    0.716E-02
DAV:   3    -0.322053341118E+04    0.18290E-04   -0.17980E-04  4456   0.925E-03    0.536E-02
DAV:   4    -0.322053339084E+04    0.20339E-04   -0.10524E-04  4072   0.686E-03    0.215E-02
DAV:   5    -0.322053339153E+04   -0.68876E-06   -0.16808E-05  3776   0.281E-03    0.145E-02
DAV:   6    -0.322053339150E+04    0.32742E-07   -0.25953E-06  3624   0.108E-03    0.838E-03
DAV:   7    -0.322053339160E+04   -0.97323E-07   -0.47878E-07  2904   0.618E-04
   45 T=   273. E= -.32645156E+04 F= -.32916254E+04 E0= -.32916254E+04  EK= 0.27110E+02 SP= 0.00E+00 SK= 0.00E+00
       N       E                     dE             d eps       ncg     rms          rms(c)
DAV:   1    -0.322063012238E+04   -0.96731E-01   -0.93012E-03  5136   0.581E-01    0.791E-02
DAV:   2    -0.322063161301E+04   -0.14906E-02   -0.14993E-02  3896   0.779E-02    0.664E-02
DAV:   3    -0.322063159856E+04    0.14457E-04   -0.16367E-04  4440   0.882E-03    0.501E-02
DAV:   4    -0.322063158138E+04    0.17180E-04   -0.87421E-05  4184   0.626E-03    0.215E-02
DAV:   5    -0.322063158194E+04   -0.56953E-06   -0.16602E-05  3752   0.273E-03    0.140E-02
DAV:   6    -0.322063158164E+04    0.30796E-06   -0.24467E-06  3544   0.102E-03    0.816E-03
DAV:   7    -0.322063158155E+04    0.85813E-07   -0.44143E-07  2920   0.616E-04
   46 T=   274. E= -.32645162E+04 F= -.32917302E+04 E0= -.32917302E+04  EK= 0.27214E+02 SP= 0.00E+00 SK= 0.00E+00
       N       E                     dE             d eps       ncg     rms          rms(c)
DAV:   1    -0.322073280751E+04   -0.10123E+00   -0.12291E-02  4944   0.584E-01    0.783E-02
DAV:   2    -0.322073444806E+04   -0.16405E-02   -0.16569E-02  3888   0.814E-02    0.718E-02
DAV:   3    -0.322073441983E+04    0.28226E-04   -0.19451E-04  4360   0.921E-03    0.547E-02
DAV:   4    -0.322073439330E+04    0.26528E-04   -0.11908E-04  4328   0.662E-03    0.252E-02
DAV:   5    -0.322073439372E+04   -0.41458E-06   -0.17478E-05  3728   0.283E-03    0.162E-02
DAV:   6    -0.322073439334E+04    0.37867E-06   -0.27580E-06  3720   0.115E-03    0.765E-03
DAV:   7    -0.322073439318E+04    0.15581E-06   -0.77008E-07  2936   0.675E-04    0.207E-03
DAV:   8    -0.322073439307E+04    0.10755E-06   -0.16595E-07  2232   0.291E-04    0.115E-03
DAV:   9    -0.322073439296E+04    0.11027E-06   -0.27845E-08  1944   0.135E-04    0.327E-04
DAV:  10    -0.322073439294E+04    0.19092E-07   -0.17881E-08  1920   0.916E-05
   47 T=   276. E= -.32645166E+04 F= -.32918398E+04 E0= -.32918398E+04  EK= 0.27323E+02 SP= 0.00E+00 SK= 0.00E+00
       N       E                     dE             d eps       ncg     rms          rms(c)
DAV:   1    -0.322083278443E+04   -0.98391E-01   -0.18114E-02  4660   0.587E-01    0.793E-02
DAV:   2    -0.322083462196E+04   -0.18375E-02   -0.18681E-02  3880   0.849E-02    0.807E-02
DAV:   3    -0.322083457515E+04    0.46808E-04   -0.24680E-04  4360   0.982E-03    0.624E-02
DAV:   4    -0.322083453161E+04    0.43536E-04   -0.14816E-04  4208   0.682E-03    0.297E-02
DAV:   5    -0.322083453039E+04    0.12269E-05   -0.19967E-05  3744   0.305E-03    0.168E-02
DAV:   6    -0.322083452954E+04    0.85222E-06   -0.36292E-06  3720   0.133E-03    0.609E-03
DAV:   7    -0.322083452924E+04    0.29235E-06   -0.99008E-07  3096   0.680E-04    0.212E-03
DAV:   8    -0.322083452910E+04    0.14315E-06   -0.13050E-07  2176   0.266E-04    0.109E-03
DAV:   9    -0.322083452897E+04    0.13018E-06   -0.25196E-08  1920   0.131E-04    0.347E-04
DAV:  10    -0.322083452894E+04    0.29089E-07   -0.10797E-08  1920   0.735E-05
   48 T=   277. E= -.32645160E+04 F= -.32919472E+04 E0= -.32919472E+04  EK= 0.27431E+02 SP= 0.00E+00 SK= 0.00E+00
       N       E                     dE             d eps       ncg     rms          rms(c)
DAV:   1    -0.322093569031E+04   -0.10116E+00   -0.18507E-02  4580   0.587E-01    0.720E-02
DAV:   2    -0.322093756455E+04   -0.18742E-02   -0.19051E-02  3920   0.852E-02    0.830E-02
DAV:   3    -0.322093751520E+04    0.49343E-04   -0.24920E-04  4424   0.101E-02    0.660E-02
DAV:   4    -0.322093745330E+04    0.61907E-04   -0.17101E-04  4224   0.734E-03    0.314E-02
DAV:   5    -0.322093744945E+04    0.38476E-05   -0.27248E-05  3768   0.350E-03    0.180E-02
DAV:   6    -0.322093744801E+04    0.14444E-05   -0.33446E-06  3688   0.126E-03    0.892E-03
DAV:   7    -0.322093744736E+04    0.65069E-06   -0.11641E-06  3240   0.809E-04    0.219E-03
DAV:   8    -0.322093744718E+04    0.17465E-06   -0.19500E-07  2288   0.315E-04    0.118E-03
DAV:   9    -0.322093744710E+04    0.76034E-07   -0.25741E-08  1944   0.127E-04
   49 T=   278. E= -.32645155E+04 F= -.32920583E+04 E0= -.32920583E+04  EK= 0.27543E+02 SP= 0.00E+00 SK= 0.00E+00
       N       E                     dE             d eps       ncg     rms          rms(c)
DAV:   1    -0.322105062224E+04   -0.11318E+00   -0.18279E-02  4832   0.584E-01    0.681E-02
DAV:   2    -0.322105252870E+04   -0.19065E-02   -0.19242E-02  3912   0.853E-02    0.744E-02
DAV:   3    -0.322105249819E+04    0.30508E-04   -0.24154E-04  4400   0.103E-02    0.584E-02
DAV:   4    -0.322105245230E+04    0.45898E-04   -0.11553E-04  4144   0.688E-03    0.273E-02
DAV:   5    -0.322105244947E+04    0.28306E-05   -0.25163E-05  3824   0.334E-03    0.153E-02
DAV:   6    -0.322105244854E+04    0.92173E-06   -0.21707E-06  3648   0.108E-03    0.874E-03
DAV:   7    -0.322105244826E+04    0.28856E-06   -0.10206E-06  3360   0.796E-04    0.205E-03
DAV:   8    -0.322105244827E+04   -0.12471E-07   -0.25132E-07  2376   0.345E-04
   50 T=   279. E= -.32645148E+04 F= -.32921826E+04 E0= -.32921826E+04  EK= 0.27668E+02 SP= 0.00E+00 SK= 0.00E+00
       N       E                     dE             d eps       ncg     rms          rms(c)
DAV:   1    -0.322118255298E+04   -0.13010E+00   -0.13395E-02  4828   0.584E-01    0.642E-02
DAV:   2    -0.322118431685E+04   -0.17639E-02   -0.17774E-02  3904   0.822E-02    0.669E-02
DAV:   3    -0.322118430086E+04    0.15986E-04   -0.21097E-04  4424   0.970E-03    0.522E-02
DAV:   4    -0.322118427232E+04    0.28547E-04   -0.69750E-05  4080   0.593E-03    0.257E-02
DAV:   5    -0.322118427017E+04    0.21450E-05   -0.22212E-05  3864   0.314E-03    0.132E-02
DAV:   6    -0.322118426991E+04    0.25802E-06   -0.18145E-06  3528   0.102E-03    0.731E-03
DAV:   7    -0.322118427018E+04   -0.26792E-06   -0.77998E-07  2992   0.706E-04    0.213E-03
DAV:   8    -0.322118427034E+04   -0.15917E-06   -0.25990E-07  2336   0.359E-04    0.104E-03
DAV:   9    -0.322118427042E+04   -0.82189E-07   -0.44420E-08  1944   0.158E-04
   51 T=   280. E= -.32645155E+04 F= -.32923247E+04 E0= -.32923247E+04  EK= 0.27809E+02 SP= 0.00E+00 SK= 0.00E+00
       N       E                     dE             d eps       ncg     rms          rms(c)
DAV:   1    -0.322132432098E+04   -0.14005E+00   -0.10643E-02  4696   0.589E-01    0.626E-02
DAV:   2    -0.322132598659E+04   -0.16656E-02   -0.16795E-02  3880   0.816E-02    0.671E-02
DAV:   3    -0.322132596425E+04    0.22343E-04   -0.19675E-04  4312   0.941E-03    0.524E-02
DAV:   4    -0.322132593322E+04    0.31034E-04   -0.11097E-04  4208   0.672E-03    0.257E-02
DAV:   5    -0.322132593261E+04    0.60273E-06   -0.20833E-05  3824   0.306E-03    0.164E-02
DAV:   6    -0.322132593263E+04   -0.17928E-07   -0.23722E-06  3584   0.119E-03    0.846E-03
DAV:   7    -0.322132593342E+04   -0.78691E-06   -0.19112E-06  3400   0.983E-04    0.218E-03
DAV:   8    -0.322132593356E+04   -0.14136E-06   -0.31454E-07  2480   0.380E-04    0.147E-03
DAV:   9    -0.322132593368E+04   -0.12372E-06   -0.44683E-08  1952   0.153E-04    0.574E-04
DAV:  10    -0.322132593370E+04   -0.14334E-07   -0.24778E-08  1904   0.122E-04
   52 T=   282. E= -.32645162E+04 F= -.32924770E+04 E0= -.32924770E+04  EK= 0.27961E+02 SP= 0.00E+00 SK= 0.00E+00
       N       E                     dE             d eps       ncg     rms          rms(c)
DAV:   1    -0.322146580242E+04   -0.13987E+00   -0.12635E-02  4348   0.600E-01    0.684E-02
DAV:   2    -0.322146754743E+04   -0.17450E-02   -0.17650E-02  3840   0.851E-02    0.725E-02
DAV:   3    -0.322146750840E+04    0.39031E-04   -0.21446E-04  4200   0.972E-03    0.557E-02
DAV:   4    -0.322146746600E+04    0.42404E-04   -0.20819E-04  4136   0.840E-03    0.243E-02
DAV:   5    -0.322146746752E+04   -0.15262E-05   -0.24122E-05  3704   0.339E-03    0.178E-02
DAV:   6    -0.322146746809E+04   -0.56076E-06   -0.35361E-06  3744   0.131E-03    0.944E-03
DAV:   7    -0.322146746925E+04   -0.11629E-05   -0.25530E-06  3528   0.109E-03    0.238E-03
DAV:   8    -0.322146746944E+04   -0.18993E-06   -0.36289E-07  2512   0.416E-04    0.139E-03
DAV:   9    -0.322146746954E+04   -0.10041E-06   -0.63171E-08  1928   0.176E-04    0.801E-04
DAV:  10    -0.322146746956E+04   -0.17826E-07   -0.29255E-08  1912   0.141E-04
   53 T=   284. E= -.32645164E+04 F= -.32926290E+04 E0= -.32926290E+04  EK= 0.28113E+02 SP= 0.00E+00 SK= 0.00E+00
       N       E                     dE             d eps       ncg     rms          rms(c)
DAV:   1    -0.322160372514E+04   -0.13626E+00   -0.15568E-02  4228   0.609E-01    0.737E-02
DAV:   2    -0.322160557857E+04   -0.18534E-02   -0.18747E-02  3780   0.868E-02    0.792E-02
DAV:   3    -0.322160552482E+04    0.53750E-04   -0.23426E-04  4264   0.998E-03    0.608E-02
DAV:   4    -0.322160546862E+04    0.56197E-04   -0.31028E-04  4084   0.978E-03    0.242E-02
DAV:   5    -0.322160547093E+04   -0.23067E-05   -0.27916E-05  3608   0.375E-03    0.188E-02
DAV:   6    -0.322160547142E+04   -0.48438E-06   -0.44020E-06  3888   0.139E-03    0.101E-02
DAV:   7    -0.322160547257E+04   -0.11515E-05   -0.27463E-06  3712   0.113E-03    0.286E-03
DAV:   8    -0.322160547285E+04   -0.28178E-06   -0.49869E-07  2512   0.480E-04    0.147E-03
DAV:   9    -0.322160547290E+04   -0.54657E-07   -0.12206E-07  2136   0.229E-04
   54 T=   285. E= -.32645159E+04 F= -.32927771E+04 E0= -.32927771E+04  EK= 0.28261E+02 SP= 0.00E+00 SK= 0.00E+00
       N       E                     dE             d eps       ncg     rms          rms(c)
DAV:   1    -0.322174473027E+04   -0.13926E+00   -0.13933E-02  4688   0.612E-01    0.835E-02
DAV:   2    -0.322174666853E+04   -0.19383E-02   -0.19480E-02  3872   0.884E-02    0.822E-02
DAV:   3    -0.322174662353E+04    0.45002E-04   -0.22702E-04  4368   0.102E-02    0.627E-02
DAV:   4    -0.322174657742E+04    0.46105E-04   -0.22833E-04  4128   0.872E-03    0.256E-02
DAV:   5    -0.322174657857E+04   -0.11443E-05   -0.22417E-05  3672   0.337E-03    0.186E-02
DAV:   6    -0.322174657854E+04    0.30486E-07   -0.39839E-06  3880   0.134E-03    0.990E-03
DAV:   7    -0.322174657913E+04   -0.59602E-06   -0.11214E-06  3232   0.849E-04    0.263E-03
DAV:   8    -0.322174657929E+04   -0.16092E-06   -0.35480E-07  2528   0.406E-04    0.130E-03
DAV:   9    -0.322174657927E+04    0.22046E-07   -0.45900E-08  1960   0.159E-04
   55 T=   287. E= -.32645152E+04 F= -.32929275E+04 E0= -.32929275E+04  EK= 0.28412E+02 SP= 0.00E+00 SK= 0.00E+00
       N       E                     dE             d eps       ncg     rms          rms(c)
DAV:   1    -0.322189768776E+04   -0.15111E+00   -0.95114E-03  4960   0.611E-01    0.871E-02
DAV:   2    -0.322189940692E+04   -0.17192E-02   -0.17244E-02  3880   0.852E-02    0.723E-02
DAV:   3    -0.322189939005E+04    0.16875E-04   -0.17338E-04  4328   0.921E-03    0.541E-02
DAV:   4    -0.322189936798E+04    0.22070E-04   -0.92739E-05  4080   0.652E-03    0.217E-02
DAV:   5    -0.322189936838E+04   -0.40887E-06   -0.17649E-05  3752   0.282E-03    0.133E-02
DAV:   6    -0.322189936822E+04    0.16420E-06   -0.25010E-06  3512   0.100E-03    0.810E-03
DAV:   7    -0.322189936824E+04   -0.20140E-07   -0.39086E-07  2776   0.559E-04
   56 T=   288. E= -.32645151E+04 F= -.32930890E+04 E0= -.32930890E+04  EK= 0.28574E+02 SP= 0.00E+00 SK= 0.00E+00
       N       E                     dE             d eps       ncg     rms          rms(c)
DAV:   1    -0.322206271156E+04   -0.16334E+00   -0.74037E-03  5032   0.607E-01    0.754E-02
DAV:   2    -0.322206419537E+04   -0.14838E-02   -0.14937E-02  3872   0.781E-02    0.643E-02
DAV:   3    -0.322206418443E+04    0.10935E-04   -0.15531E-04  4360   0.840E-03    0.483E-02
DAV:   4    -0.322206416654E+04    0.17894E-04   -0.70223E-05  4160   0.556E-03    0.209E-02
DAV:   5    -0.322206416654E+04    0.29831E-08   -0.14748E-05  3824   0.253E-03    0.123E-02
DAV:   6    -0.322206416614E+04    0.39747E-06   -0.20166E-06  3352   0.898E-04    0.740E-03
DAV:   7    -0.322206416600E+04    0.13890E-06   -0.30059E-07  2720   0.495E-04    0.219E-03
DAV:   8    -0.322206416592E+04    0.84736E-07   -0.13794E-07  2136   0.271E-04
   57 T=   290. E= -.32645158E+04 F= -.32932624E+04 E0= -.32932624E+04  EK= 0.28747E+02 SP= 0.00E+00 SK= 0.00E+00
       N       E                     dE             d eps       ncg     rms          rms(c)
DAV:   1    -0.322222912131E+04   -0.16496E+00   -0.98068E-03  4860   0.607E-01    0.757E-02
DAV:   2    -0.322223071376E+04   -0.15925E-02   -0.16102E-02  3824   0.812E-02    0.689E-02
DAV:   3    -0.322223069176E+04    0.21998E-04   -0.18414E-04  4376   0.873E-03    0.524E-02
DAV:   4    -0.322223066654E+04    0.25227E-04   -0.97885E-05  4256   0.588E-03    0.244E-02
DAV:   5    -0.322223066607E+04    0.46389E-06   -0.13826E-05  3768   0.254E-03    0.148E-02
DAV:   6    -0.322223066547E+04    0.60565E-06   -0.24267E-06  3504   0.106E-03    0.643E-03
DAV:   7    -0.322223066533E+04    0.14176E-06   -0.49691E-07  2768   0.520E-04    0.202E-03
DAV:   8    -0.322223066523E+04    0.94282E-07   -0.76514E-08  2048   0.211E-04
   58 T=   292. E= -.32645162E+04 F= -.32934380E+04 E0= -.32934380E+04  EK= 0.28922E+02 SP= 0.00E+00 SK= 0.00E+00
       N       E                     dE             d eps       ncg     rms          rms(c)
DAV:   1    -0.322238794267E+04   -0.15728E+00   -0.15955E-02  4620   0.611E-01    0.847E-02
DAV:   2    -0.322238984438E+04   -0.19017E-02   -0.19326E-02  3872   0.896E-02    0.800E-02
DAV:   3    -0.322238980621E+04    0.38163E-04   -0.24242E-04  4304   0.971E-03    0.612E-02
DAV:   4    -0.322238977008E+04    0.36129E-04   -0.12465E-04  4176   0.631E-03    0.296E-02
DAV:   5    -0.322238976845E+04    0.16337E-05   -0.15724E-05  3768   0.277E-03    0.164E-02
DAV:   6    -0.322238976756E+04    0.89097E-06   -0.37657E-06  3632   0.131E-03    0.567E-03
DAV:   7    -0.322238976740E+04    0.15883E-06   -0.51482E-07  2848   0.526E-04    0.201E-03
DAV:   8    -0.322238976727E+04    0.13328E-06   -0.87487E-08  2160   0.227E-04    0.920E-04
DAV:   9    -0.322238976721E+04    0.56098E-07   -0.26909E-08  1928   0.127E-04
   59 T=   293. E= -.32645160E+04 F= -.32936073E+04 E0= -.32936073E+04  EK= 0.29091E+02 SP= 0.00E+00 SK= 0.00E+00
       N       E                     dE             d eps       ncg     rms          rms(c)
DAV:   1    -0.322254180141E+04   -0.15203E+00   -0.18702E-02  4364   0.610E-01    0.812E-02
DAV:   2    -0.322254388050E+04   -0.20791E-02   -0.21103E-02  3880   0.915E-02    0.865E-02
DAV:   3    -0.322254383119E+04    0.49306E-04   -0.27605E-04  4376   0.106E-02    0.673E-02
DAV:   4    -0.322254377540E+04    0.55790E-04   -0.15998E-04  4184   0.721E-03    0.325E-02
DAV:   5    -0.322254377152E+04    0.38853E-05   -0.23260E-05  3808   0.332E-03    0.184E-02
DAV:   6    -0.322254376997E+04    0.15522E-05   -0.37446E-06  3664   0.134E-03    0.808E-03
DAV:   7    -0.322254376950E+04    0.46119E-06   -0.88522E-07  3160   0.703E-04    0.223E-03
DAV:   8    -0.322254376937E+04    0.13073E-06   -0.14509E-07  2160   0.282E-04    0.107E-03
DAV:   9    -0.322254376934E+04    0.33324E-07   -0.27168E-08  1936   0.130E-04
   60 T=   295. E= -.32645152E+04 F= -.32937728E+04 E0= -.32937728E+04  EK= 0.29258E+02 SP= 0.00E+00 SK= 0.00E+00
       N       E                     dE             d eps       ncg     rms          rms(c)
DAV:   1    -0.322270169382E+04   -0.15792E+00   -0.17406E-02  4744   0.605E-01    0.721E-02
DAV:   2    -0.322270377497E+04   -0.20812E-02   -0.20956E-02  3920   0.871E-02    0.782E-02
DAV:   3    -0.322270374349E+04    0.31479E-04   -0.27251E-04  4400   0.109E-02    0.609E-02
DAV:   4    -0.322270369403E+04    0.49460E-04   -0.12604E-04  4160   0.718E-03    0.282E-02
DAV:   5    -0.322270369088E+04    0.31586E-05   -0.25856E-05  3816   0.341E-03    0.158E-02
DAV:   6    -0.322270368967E+04    0.12101E-05   -0.23275E-06  3664   0.115E-03    0.840E-03
DAV:   7    -0.322270368935E+04    0.31589E-06   -0.12068E-06  3232   0.817E-04    0.200E-03
DAV:   8    -0.322270368940E+04   -0.45897E-07   -0.21870E-07  2256   0.328E-04
   61 T=   297. E= -.32645146E+04 F= -.32939457E+04 E0= -.32939457E+04  EK= 0.29431E+02 SP= 0.00E+00 SK= 0.00E+00
       N       E                     dE             d eps       ncg     rms          rms(c)
DAV:   1    -0.322287654124E+04   -0.17285E+00   -0.14368E-02  4916   0.603E-01    0.665E-02
DAV:   2    -0.322287838585E+04   -0.18446E-02   -0.18554E-02  3912   0.809E-02    0.688E-02
DAV:   3    -0.322287836890E+04    0.16949E-04   -0.23571E-04  4408   0.101E-02    0.534E-02
DAV:   4    -0.322287833838E+04    0.30517E-04   -0.81323E-05  4120   0.618E-03    0.258E-02
DAV:   5    -0.322287833622E+04    0.21569E-05   -0.20428E-05  3840   0.301E-03    0.142E-02
DAV:   6    -0.322287833567E+04    0.54936E-06   -0.20957E-06  3592   0.114E-03    0.679E-03
DAV:   7    -0.322287833598E+04   -0.30773E-06   -0.12265E-06  2968   0.773E-04    0.197E-03
DAV:   8    -0.322287833611E+04   -0.12509E-06   -0.19993E-07  2272   0.323E-04    0.112E-03
DAV:   9    -0.322287833620E+04   -0.92259E-07   -0.45535E-08  1976   0.158E-04
   62 T=   299. E= -.32645152E+04 F= -.32941343E+04 E0= -.32941343E+04  EK= 0.29619E+02 SP= 0.00E+00 SK= 0.00E+00
       N       E                     dE             d eps       ncg     rms          rms(c)
DAV:   1    -0.322306010156E+04   -0.18177E+00   -0.92585E-03  4772   0.608E-01    0.621E-02
DAV:   2    -0.322306171554E+04   -0.16140E-02   -0.16257E-02  3888   0.765E-02    0.661E-02
DAV:   3    -0.322306169200E+04    0.23539E-04   -0.20923E-04  4368   0.927E-03    0.512E-02
DAV:   4    -0.322306166112E+04    0.30882E-04   -0.12633E-04  4192   0.685E-03    0.244E-02
DAV:   5    -0.322306166074E+04    0.37786E-06   -0.17776E-05  3736   0.288E-03    0.167E-02
DAV:   6    -0.322306166061E+04    0.13236E-06   -0.29667E-06  3672   0.127E-03    0.791E-03
DAV:   7    -0.322306166140E+04   -0.79823E-06   -0.21131E-06  3352   0.950E-04    0.195E-03
DAV:   8    -0.322306166151E+04   -0.10838E-06   -0.24571E-07  2288   0.341E-04    0.138E-03
DAV:   9    -0.322306166164E+04   -0.13155E-06   -0.40343E-08  1936   0.151E-04    0.522E-04
DAV:  10    -0.322306166166E+04   -0.14363E-07   -0.19282E-08  1888   0.107E-04
   63 T=   301. E= -.32645165E+04 F= -.32943321E+04 E0= -.32943321E+04  EK= 0.29816E+02 SP= 0.00E+00 SK= 0.00E+00
       N       E                     dE             d eps       ncg     rms          rms(c)
DAV:   1    -0.322323679730E+04   -0.17514E+00   -0.13143E-02  4680   0.620E-01    0.801E-02
DAV:   2    -0.322323865871E+04   -0.18614E-02   -0.18775E-02  3872   0.841E-02    0.717E-02
DAV:   3    -0.322323862123E+04    0.37484E-04   -0.25732E-04  4392   0.101E-02    0.527E-02
DAV:   4    -0.322323858968E+04    0.31550E-04   -0.20545E-04  4096   0.813E-03    0.221E-02
DAV:   5    -0.322323859096E+04   -0.12771E-05   -0.18871E-05  3624   0.303E-03    0.168E-02
DAV:   6    -0.322323859168E+04   -0.72035E-06   -0.37130E-06  3848   0.128E-03    0.817E-03
DAV:   7    -0.322323859288E+04   -0.12006E-05   -0.16187E-06  3240   0.861E-04    0.214E-03
DAV:   8    -0.322323859304E+04   -0.16188E-06   -0.20372E-07  2240   0.318E-04    0.110E-03
DAV:   9    -0.322323859313E+04   -0.91924E-07   -0.53600E-08  1944   0.168E-04
   64 T=   303. E= -.32645172E+04 F= -.32945232E+04 E0= -.32945232E+04  EK= 0.30006E+02 SP= 0.00E+00 SK= 0.00E+00
       N       E                     dE             d eps       ncg     rms          rms(c)
DAV:   1    -0.322340043836E+04   -0.16185E+00   -0.16990E-02  4752   0.630E-01    0.954E-02
DAV:   2    -0.322340251908E+04   -0.20807E-02   -0.20946E-02  3824   0.914E-02    0.836E-02
DAV:   3    -0.322340246512E+04    0.53957E-04   -0.27279E-04  4396   0.105E-02    0.609E-02
DAV:   4    -0.322340242395E+04    0.41171E-04   -0.28777E-04  4144   0.957E-03    0.235E-02
DAV:   5    -0.322340242538E+04   -0.14280E-05   -0.24828E-05  3628   0.351E-03    0.186E-02
DAV:   6    -0.322340242573E+04   -0.34862E-06   -0.46288E-06  4064   0.134E-03    0.105E-02
DAV:   7    -0.322340242703E+04   -0.13049E-05   -0.13507E-06  3216   0.915E-04    0.257E-03
DAV:   8    -0.322340242725E+04   -0.21709E-06   -0.29020E-07  2344   0.366E-04    0.131E-03
DAV:   9    -0.322340242725E+04   -0.28376E-08   -0.47055E-08  1920   0.159E-04
   65 T=   304. E= -.32645164E+04 F= -.32947004E+04 E0= -.32947004E+04  EK= 0.30184E+02 SP= 0.00E+00 SK= 0.00E+00
       N       E                     dE             d eps       ncg     rms          rms(c)
DAV:   1    -0.322356110608E+04   -0.15868E+00   -0.16892E-02  4984   0.631E-01    0.107E-01
DAV:   2    -0.322356330389E+04   -0.21978E-02   -0.21996E-02  3904   0.940E-02    0.882E-02
DAV:   3    -0.322356326671E+04    0.37176E-04   -0.25801E-04  4448   0.108E-02    0.642E-02
DAV:   4    -0.322356323173E+04    0.34979E-04   -0.19070E-04  4112   0.851E-03    0.232E-02
DAV:   5    -0.322356323282E+04   -0.10873E-05   -0.24353E-05  3744   0.334E-03    0.168E-02
DAV:   6    -0.322356323300E+04   -0.17387E-06   -0.35968E-06  4000   0.119E-03    0.975E-03
DAV:   7    -0.322356323336E+04   -0.36568E-06   -0.10242E-06  2880   0.751E-04    0.227E-03
DAV:   8    -0.322356323339E+04   -0.28740E-07   -0.24177E-07  2360   0.345E-04
   66 T=   306. E= -.32645156E+04 F= -.32948734E+04 E0= -.32948734E+04  EK= 0.30358E+02 SP= 0.00E+00 SK= 0.00E+00
       N       E                     dE             d eps       ncg     rms          rms(c)
DAV:   1    -0.322373198464E+04   -0.16875E+00   -0.11506E-02  5196   0.626E-01    0.978E-02
DAV:   2    -0.322373378633E+04   -0.18017E-02   -0.18036E-02  3896   0.858E-02    0.750E-02
DAV:   3    -0.322373377250E+04    0.13829E-04   -0.18847E-04  4416   0.947E-03    0.544E-02
DAV:   4    -0.322373375315E+04    0.19345E-04   -0.10003E-04  4080   0.691E-03    0.183E-02
DAV:   5    -0.322373375392E+04   -0.76767E-06   -0.21453E-05  3752   0.295E-03    0.133E-02
DAV:   6    -0.322373375380E+04    0.11860E-06   -0.29307E-06  3720   0.976E-04    0.920E-03
DAV:   7    -0.322373375382E+04   -0.12500E-07   -0.85421E-07  2856   0.700E-04
   67 T=   308. E= -.32645155E+04 F= -.32950551E+04 E0= -.32950551E+04  EK= 0.30540E+02 SP= 0.00E+00 SK= 0.00E+00
       N       E                     dE             d eps       ncg     rms          rms(c)
DAV:   1    -0.322391240298E+04   -0.17865E+00   -0.70123E-03  5144   0.621E-01    0.792E-02
DAV:   2    -0.322391377958E+04   -0.13766E-02   -0.13833E-02  3880   0.761E-02    0.644E-02
DAV:   3    -0.322391376381E+04    0.15770E-04   -0.13904E-04  4352   0.805E-03    0.472E-02
DAV:   4    -0.322391374616E+04    0.17648E-04   -0.11801E-04  4240   0.690E-03    0.170E-02
DAV:   5    -0.322391374667E+04   -0.51165E-06   -0.20442E-05  3664   0.291E-03    0.138E-02
DAV:   6    -0.322391374639E+04    0.28480E-06   -0.39677E-06  3680   0.107E-03    0.947E-03
DAV:   7    -0.322391374633E+04    0.56199E-07   -0.96139E-07  2856   0.772E-04
   68 T=   310. E= -.32645160E+04 F= -.32952454E+04 E0= -.32952454E+04  EK= 0.30729E+02 SP= 0.00E+00 SK= 0.00E+00
       N       E                     dE             d eps       ncg     rms          rms(c)
DAV:   1    -0.322408668023E+04   -0.17293E+00   -0.11373E-02  4916   0.625E-01    0.866E-02
DAV:   2    -0.322408832864E+04   -0.16484E-02   -0.16617E-02  3864   0.842E-02    0.700E-02
DAV:   3    -0.322408830536E+04    0.23285E-04   -0.19154E-04  4416   0.891E-03    0.516E-02
DAV:   4    -0.322408828502E+04    0.20336E-04   -0.11457E-04  4176   0.609E-03    0.228E-02
DAV:   5    -0.322408828596E+04   -0.93968E-06   -0.13321E-05  3688   0.244E-03    0.150E-02
DAV:   6    -0.322408828607E+04   -0.11025E-06   -0.24956E-06  3560   0.102E-03    0.629E-03
DAV:   7    -0.322408828609E+04   -0.22861E-07   -0.61012E-07  2920   0.558E-04
   69 T=   312. E= -.32645164E+04 F= -.32954301E+04 E0= -.32954301E+04  EK= 0.30914E+02 SP= 0.00E+00 SK= 0.00E+00
       N       E                     dE             d eps       ncg     rms          rms(c)
DAV:   1    -0.322424324961E+04   -0.15496E+00   -0.20407E-02  4600   0.633E-01    0.974E-02
DAV:   2    -0.322424533670E+04   -0.20871E-02   -0.21107E-02  3840   0.958E-02    0.838E-02
DAV:   3    -0.322424529348E+04    0.43226E-04   -0.26848E-04  4424   0.103E-02    0.629E-02
DAV:   4    -0.322424526095E+04    0.32528E-04   -0.14603E-04  4096   0.668E-03    0.291E-02
DAV:   5    -0.322424526148E+04   -0.52837E-06   -0.15601E-05  3736   0.276E-03    0.163E-02
DAV:   6    -0.322424526145E+04    0.23632E-07   -0.32811E-06  3680   0.125E-03    0.525E-03
DAV:   7    -0.322424526141E+04    0.39290E-07   -0.54261E-07  2848   0.526E-04
   70 T=   313. E= -.32645160E+04 F= -.32955973E+04 E0= -.32955973E+04  EK= 0.31081E+02 SP= 0.00E+00 SK= 0.00E+00
       N       E                     dE             d eps       ncg     rms          rms(c)
DAV:   1    -0.322438740105E+04   -0.14214E+00   -0.21669E-02  4432   0.632E-01    0.786E-02
DAV:   2    -0.322438959664E+04   -0.21956E-02   -0.22163E-02  3888   0.933E-02    0.883E-02
DAV:   3    -0.322438954229E+04    0.54350E-04   -0.27586E-04  4352   0.109E-02    0.698E-02
DAV:   4    -0.322438947271E+04    0.69584E-04   -0.20992E-04  4200   0.829E-03    0.317E-02
DAV:   5    -0.322438947026E+04    0.24432E-05   -0.32082E-05  3776   0.383E-03    0.186E-02
DAV:   6    -0.322438946908E+04    0.11831E-05   -0.26477E-06  3704   0.118E-03    0.963E-03
DAV:   7    -0.322438946841E+04    0.66643E-06   -0.16068E-06  3360   0.947E-04    0.215E-03
DAV:   8    -0.322438946831E+04    0.10371E-06   -0.29509E-07  2320   0.375E-04    0.124E-03
DAV:   9    -0.322438946824E+04    0.70955E-07   -0.27684E-08  1928   0.128E-04
   71 T=   315. E= -.32645150E+04 F= -.32957523E+04 E0= -.32957523E+04  EK= 0.31237E+02 SP= 0.00E+00 SK= 0.00E+00
       N       E                     dE             d eps       ncg     rms          rms(c)
DAV:   1    -0.322453510122E+04   -0.14563E+00   -0.17888E-02  4704   0.630E-01    0.719E-02
DAV:   2    -0.322453723571E+04   -0.21345E-02   -0.21528E-02  3856   0.904E-02    0.754E-02
DAV:   3    -0.322453720881E+04    0.26905E-04   -0.25317E-04  4280   0.107E-02    0.587E-02
DAV:   4    -0.322453716467E+04    0.44141E-04   -0.90820E-05  4096   0.646E-03    0.281E-02
DAV:   5    -0.322453716025E+04    0.44229E-05   -0.33671E-05  3888   0.379E-03    0.122E-02
DAV:   6    -0.322453715987E+04    0.37112E-06   -0.19512E-06  3488   0.102E-03    0.764E-03
DAV:   7    -0.322453715965E+04    0.22753E-06   -0.55307E-07  2872   0.574E-04    0.232E-03
DAV:   8    -0.322453715967E+04   -0.27896E-07   -0.31100E-07  2520   0.357E-04
   72 T=   317. E= -.32645141E+04 F= -.32959113E+04 E0= -.32959113E+04  EK= 0.31397E+02 SP= 0.00E+00 SK= 0.00E+00
       N       E                     dE             d eps       ncg     rms          rms(c)
DAV:   1    -0.322469752738E+04   -0.16037E+00   -0.15234E-02  4916   0.630E-01    0.584E-02
DAV:   2    -0.322469920766E+04   -0.16803E-02   -0.16910E-02  3896   0.779E-02    0.614E-02
DAV:   3    -0.322469919703E+04    0.10632E-04   -0.20116E-04  4392   0.903E-03    0.483E-02
DAV:   4    -0.322469917422E+04    0.22811E-04   -0.50913E-05  4064   0.490E-03    0.257E-02
DAV:   5    -0.322469917144E+04    0.27771E-05   -0.17419E-05  3912   0.279E-03    0.120E-02
DAV:   6    -0.322469917136E+04    0.83834E-07   -0.16889E-06  3360   0.102E-03    0.557E-03
DAV:   7    -0.322469917161E+04   -0.25661E-06   -0.70998E-07  2816   0.592E-04    0.206E-03
DAV:   8    -0.322469917169E+04   -0.78609E-07   -0.15443E-07  2176   0.286E-04
   73 T=   318. E= -.32645147E+04 F= -.32960850E+04 E0= -.32960850E+04  EK= 0.31570E+02 SP= 0.00E+00 SK= 0.00E+00
       N       E                     dE             d eps       ncg     rms          rms(c)
DAV:   1    -0.322486499834E+04   -0.16583E+00   -0.91641E-03  4828   0.640E-01    0.582E-02
DAV:   2    -0.322486643060E+04   -0.14323E-02   -0.14384E-02  3848   0.744E-02    0.582E-02
DAV:   3    -0.322486641538E+04    0.15220E-04   -0.16894E-04  4456   0.831E-03    0.450E-02
DAV:   4    -0.322486639490E+04    0.20482E-04   -0.95736E-05  4112   0.586E-03    0.209E-02
DAV:   5    -0.322486639550E+04   -0.59979E-06   -0.12032E-05  3744   0.237E-03    0.141E-02
DAV:   6    -0.322486639619E+04   -0.68331E-06   -0.21678E-06  3528   0.107E-03    0.627E-03
DAV:   7    -0.322486639690E+04   -0.71182E-06   -0.11311E-06  2952   0.702E-04    0.175E-03
DAV:   8    -0.322486639693E+04   -0.33178E-07   -0.12819E-07  2064   0.255E-04
   74 T=   320. E= -.32645156E+04 F= -.32962638E+04 E0= -.32962638E+04  EK= 0.31748E+02 SP= 0.00E+00 SK= 0.00E+00
       N       E                     dE             d eps       ncg     rms          rms(c)
DAV:   1    -0.322501903193E+04   -0.15264E+00   -0.13476E-02  4348   0.655E-01    0.855E-02
DAV:   2    -0.322502088452E+04   -0.18526E-02   -0.18635E-02  3720   0.907E-02    0.699E-02
DAV:   3    -0.322502085635E+04    0.28171E-04   -0.21299E-04  4304   0.945E-03    0.516E-02
DAV:   4    -0.322502083494E+04    0.21402E-04   -0.16550E-04  4104   0.733E-03    0.212E-02
DAV:   5    -0.322502083671E+04   -0.17647E-05   -0.14573E-05  3656   0.265E-03    0.157E-02
DAV:   6    -0.322502083785E+04   -0.11413E-05   -0.27971E-06  3640   0.113E-03    0.780E-03
DAV:   7    -0.322502083902E+04   -0.11701E-05   -0.10201E-06  2976   0.737E-04    0.196E-03
DAV:   8    -0.322502083914E+04   -0.11589E-06   -0.12464E-07  2096   0.260E-04    0.109E-03
DAV:   9    -0.322502083916E+04   -0.19878E-07   -0.42061E-08  1928   0.151E-04
   75 T=   322. E= -.32645164E+04 F= -.32964293E+04 E0= -.32964293E+04  EK= 0.31913E+02 SP= 0.00E+00 SK= 0.00E+00
       N       E                     dE             d eps       ncg     rms          rms(c)
DAV:   1    -0.322515317962E+04   -0.13234E+00   -0.19798E-02  4388   0.665E-01    0.101E-01
DAV:   2    -0.322515546770E+04   -0.22881E-02   -0.23009E-02  3768   0.100E-01    0.852E-02
DAV:   3    -0.322515541813E+04    0.49576E-04   -0.26791E-04  4296   0.109E-02    0.622E-02
DAV:   4    -0.322515538141E+04    0.36717E-04   -0.24865E-04  4080   0.901E-03    0.236E-02
DAV:   5    -0.322515538328E+04   -0.18696E-05   -0.21717E-05  3672   0.325E-03    0.179E-02
DAV:   6    -0.322515538403E+04   -0.74980E-06   -0.36485E-06  3920   0.124E-03    0.970E-03
DAV:   7    -0.322515538526E+04   -0.12307E-05   -0.93682E-07  2952   0.788E-04    0.225E-03
DAV:   8    -0.322515538540E+04   -0.14419E-06   -0.20208E-07  2240   0.319E-04    0.123E-03
DAV:   9    -0.322515538538E+04    0.18859E-07   -0.24221E-08  1936   0.122E-04
   76 T=   323. E= -.32645154E+04 F= -.32965742E+04 E0= -.32965742E+04  EK= 0.32059E+02 SP= 0.00E+00 SK= 0.00E+00
       N       E                     dE             d eps       ncg     rms          rms(c)
DAV:   1    -0.322528267074E+04   -0.12729E+00   -0.15607E-02  4840   0.659E-01    0.887E-02
DAV:   2    -0.322528480683E+04   -0.21361E-02   -0.21387E-02  3880   0.929E-02    0.851E-02
DAV:   3    -0.322528477067E+04    0.36156E-04   -0.23835E-04  4304   0.105E-02    0.644E-02
DAV:   4    -0.322528472980E+04    0.40877E-04   -0.15870E-04  4144   0.759E-03    0.264E-02
DAV:   5    -0.322528473059E+04   -0.79031E-06   -0.20435E-05  3768   0.309E-03    0.164E-02
DAV:   6    -0.322528473077E+04   -0.17707E-06   -0.17964E-06  3600   0.958E-04    0.900E-03
DAV:   7    -0.322528473109E+04   -0.31997E-06   -0.96698E-07  2888   0.746E-04    0.200E-03
DAV:   8    -0.322528473114E+04   -0.50131E-07   -0.23544E-07  2272   0.339E-04
   77 T=   325. E= -.32645146E+04 F= -.32967131E+04 E0= -.32967131E+04  EK= 0.32199E+02 SP= 0.00E+00 SK= 0.00E+00
       N       E                     dE             d eps       ncg     rms          rms(c)
DAV:   1    -0.322542190977E+04   -0.13718E+00   -0.10115E-02  5004   0.652E-01    0.719E-02
DAV:   2    -0.322542358349E+04   -0.16737E-02   -0.16741E-02  3888   0.824E-02    0.650E-02
DAV:   3    -0.322542357571E+04    0.77822E-05   -0.17216E-04  4384   0.877E-03    0.495E-02
DAV:   4    -0.322542355898E+04    0.16730E-04   -0.58229E-05  4120   0.529E-03    0.217E-02
DAV:   5    -0.322542355896E+04    0.19558E-07   -0.12701E-05  3800   0.240E-03    0.117E-02
DAV:   6    -0.322542355891E+04    0.50277E-07   -0.14234E-06  3280   0.803E-04    0.677E-03
DAV:   7    -0.322542355884E+04    0.67972E-07   -0.35905E-07  2744   0.500E-04
   78 T=   326. E= -.32645147E+04 F= -.32968609E+04 E0= -.32968609E+04  EK= 0.32346E+02 SP= 0.00E+00 SK= 0.00E+00
       N       E                     dE             d eps       ncg     rms          rms(c)
DAV:   1    -0.322556609868E+04   -0.14254E+00   -0.79731E-03  5008   0.649E-01    0.590E-02
DAV:   2    -0.322556743811E+04   -0.13394E-02   -0.13434E-02  3848   0.730E-02    0.545E-02
DAV:   3    -0.322556743254E+04    0.55753E-05   -0.14148E-04  4384   0.752E-03    0.417E-02
[...]
       N       E                     dE             d eps       ncg     rms          rms(c)
DAV:   1    -0.322417075267E+04    0.37709E-01   -0.23853E-02  4204   0.686E-01    0.101E-01
DAV:   2    -0.322417380206E+04   -0.30494E-02   -0.30413E-02  3864   0.118E-01    0.904E-02
DAV:   3    -0.322417377134E+04    0.30716E-04   -0.33608E-04  4424   0.123E-02    0.680E-02
DAV:   4    -0.322417374510E+04    0.26239E-04   -0.21338E-04  4208   0.946E-03    0.281E-02
DAV:   5    -0.322417374904E+04   -0.39345E-05   -0.33709E-05  3744   0.396E-03    0.181E-02
DAV:   6    -0.322417374935E+04   -0.30988E-06   -0.47771E-06  3752   0.145E-03    0.962E-03
DAV:   7    -0.322417375011E+04   -0.75858E-06   -0.12117E-06  2976   0.852E-04    0.244E-03
DAV:   8    -0.322417375022E+04   -0.11359E-06   -0.20387E-07  2512   0.324E-04    0.127E-03
DAV:   9    -0.322417375024E+04   -0.21522E-07   -0.41319E-08  1976   0.161E-04
 1931 T=   322. E= -.32645178E+04 F= -.32964263E+04 E0= -.32964263E+04  EK= 0.31909E+02 SP= 0.00E+00 SK= 0.00E+00
       N       E                     dE             d eps       ncg     rms          rms(c)
DAV:   1    -0.322413233846E+04    0.41412E-01   -0.25189E-02  4136   0.686E-01    0.996E-02
DAV:   2    -0.322413549434E+04   -0.31559E-02   -0.31422E-02  3880   0.118E-01    0.913E-02
DAV:   3    -0.322413545940E+04    0.34941E-04   -0.36327E-04  4360   0.127E-02    0.683E-02
DAV:   4    -0.322413542727E+04    0.32136E-04   -0.23054E-04  4224   0.955E-03    0.284E-02
DAV:   5    -0.322413543127E+04   -0.39991E-05   -0.33314E-05  3776   0.391E-03    0.186E-02
DAV:   6    -0.322413543195E+04   -0.67831E-06   -0.40662E-06  3720   0.137E-03    0.999E-03
DAV:   7    -0.322413543284E+04   -0.89678E-06   -0.13418E-06  2960   0.872E-04    0.247E-03
DAV:   8    -0.322413543301E+04   -0.16757E-06   -0.21165E-07  2416   0.330E-04    0.132E-03
DAV:   9    -0.322413543304E+04   -0.30603E-07   -0.38081E-08  1984   0.150E-04
 1932 T=   321. E= -.32645177E+04 F= -.32963839E+04 E0= -.32963839E+04  EK= 0.31866E+02 SP= 0.00E+00 SK= 0.00E+00
       N       E                     dE             d eps       ncg     rms          rms(c)
DAV:   1    -0.322409493983E+04    0.40493E-01   -0.25837E-02  4168   0.685E-01    0.958E-02
DAV:   2    -0.322409808730E+04   -0.31475E-02   -0.31338E-02  3896   0.117E-01    0.913E-02
DAV:   3    -0.322409804951E+04    0.37788E-04   -0.36516E-04  4400   0.127E-02    0.686E-02
DAV:   4    -0.322409801236E+04    0.37150E-04   -0.24175E-04  4240   0.954E-03    0.286E-02
DAV:   5    -0.322409801640E+04   -0.40416E-05   -0.34160E-05  3760   0.393E-03    0.189E-02
DAV:   6    -0.322409801712E+04   -0.71990E-06   -0.36274E-06  3656   0.132E-03    0.105E-02
DAV:   7    -0.322409801813E+04   -0.10119E-05   -0.15112E-06  3016   0.929E-04    0.244E-03
DAV:   8    -0.322409801833E+04   -0.20284E-06   -0.24724E-07  2544   0.351E-04    0.134E-03
DAV:   9    -0.322409801837E+04   -0.34255E-07   -0.33626E-08  1984   0.141E-04
 1933 T=   321. E= -.32645174E+04 F= -.32963420E+04 E0= -.32963420E+04  EK= 0.31825E+02 SP= 0.00E+00 SK= 0.00E+00
       N       E                     dE             d eps       ncg     rms          rms(c)
DAV:   1    -0.322406366632E+04    0.34352E-01   -0.27323E-02  4392   0.683E-01    0.955E-02
DAV:   2    -0.322406688443E+04   -0.32181E-02   -0.32005E-02  3888   0.117E-01    0.890E-02
DAV:   3    -0.322406685375E+04    0.30682E-04   -0.37235E-04  4440   0.127E-02    0.668E-02
DAV:   4    -0.322406682032E+04    0.33427E-04   -0.21312E-04  4248   0.906E-03    0.280E-02
DAV:   5    -0.322406682409E+04   -0.37684E-05   -0.32658E-05  3752   0.382E-03    0.179E-02
DAV:   6    -0.322406682479E+04   -0.70150E-06   -0.32818E-06  3608   0.126E-03    0.972E-03
DAV:   7    -0.322406682567E+04   -0.88074E-06   -0.13261E-06  2904   0.865E-04    0.228E-03
DAV:   8    -0.322406682584E+04   -0.16725E-06   -0.20592E-07  2424   0.327E-04    0.123E-03
DAV:   9    -0.322406682587E+04   -0.24433E-07   -0.33721E-08  1976   0.142E-04
 1934 T=   321. E= -.32645170E+04 F= -.32963059E+04 E0= -.32963059E+04  EK= 0.31789E+02 SP= 0.00E+00 SK= 0.00E+00
       N       E                     dE             d eps       ncg     rms          rms(c)
DAV:   1    -0.322404159233E+04    0.25234E-01   -0.25046E-02  4136   0.683E-01    0.953E-02
DAV:   2    -0.322404472688E+04   -0.31345E-02   -0.31188E-02  3880   0.116E-01    0.870E-02
DAV:   3    -0.322404470131E+04    0.25566E-04   -0.35484E-04  4440   0.125E-02    0.654E-02
DAV:   4    -0.322404467183E+04    0.29477E-04   -0.18202E-04  4248   0.869E-03    0.273E-02
DAV:   5    -0.322404467550E+04   -0.36654E-05   -0.32212E-05  3744   0.376E-03    0.167E-02
DAV:   6    -0.322404467610E+04   -0.60076E-06   -0.29564E-06  3624   0.120E-03    0.895E-03
DAV:   7    -0.322404467682E+04   -0.72071E-06   -0.10350E-06  2896   0.793E-04    0.215E-03
DAV:   8    -0.322404467692E+04   -0.10300E-06   -0.17887E-07  2400   0.305E-04    0.116E-03
DAV:   9    -0.322404467694E+04   -0.19063E-07   -0.31157E-08  1968   0.140E-04
 1935 T=   320. E= -.32645172E+04 F= -.32962782E+04 E0= -.32962782E+04  EK= 0.31761E+02 SP= 0.00E+00 SK= 0.00E+00
       N       E                     dE             d eps       ncg     rms          rms(c)
DAV:   1    -0.322402621724E+04    0.18460E-01   -0.24835E-02  4304   0.684E-01    0.987E-02
DAV:   2    -0.322402938350E+04   -0.31663E-02   -0.31546E-02  3880   0.118E-01    0.885E-02
DAV:   3    -0.322402935810E+04    0.25401E-04   -0.35918E-04  4448   0.126E-02    0.666E-02
DAV:   4    -0.322402932917E+04    0.28929E-04   -0.16888E-04  4232   0.847E-03    0.286E-02
DAV:   5    -0.322402933251E+04   -0.33438E-05   -0.31164E-05  3752   0.374E-03    0.167E-02
DAV:   6    -0.322402933310E+04   -0.58986E-06   -0.29315E-06  3664   0.121E-03    0.862E-03
DAV:   7    -0.322402933371E+04   -0.60613E-06   -0.88488E-07  2864   0.750E-04    0.211E-03
DAV:   8    -0.322402933376E+04   -0.51616E-07   -0.16511E-07  2392   0.297E-04
 1936 T=   320. E= -.32645174E+04 F= -.32962569E+04 E0= -.32962569E+04  EK= 0.31740E+02 SP= 0.00E+00 SK= 0.00E+00
       N       E                     dE             d eps       ncg     rms          rms(c)
DAV:   1    -0.322401376082E+04    0.15573E-01   -0.24909E-02  4124   0.685E-01    0.102E-01
DAV:   2    -0.322401689207E+04   -0.31313E-02   -0.31250E-02  3888   0.119E-01    0.925E-02
DAV:   3    -0.322401685823E+04    0.33841E-04   -0.35200E-04  4408   0.125E-02    0.700E-02
DAV:   4    -0.322401682497E+04    0.33260E-04   -0.18870E-04  4216   0.881E-03    0.307E-02
DAV:   5    -0.322401682804E+04   -0.30687E-05   -0.32114E-05  3760   0.384E-03    0.183E-02
DAV:   6    -0.322401682856E+04   -0.51697E-06   -0.36248E-06  3784   0.133E-03    0.924E-03
DAV:   7    -0.322401682907E+04   -0.51556E-06   -0.96802E-07  2896   0.786E-04    0.226E-03
DAV:   8    -0.322401682910E+04   -0.27445E-07   -0.18902E-07  2400   0.315E-04
 1937 T=   320. E= -.32645176E+04 F= -.32962383E+04 E0= -.32962383E+04  EK= 0.31721E+02 SP= 0.00E+00 SK= 0.00E+00
       N       E                     dE             d eps       ncg     rms          rms(c)
DAV:   1    -0.322400045115E+04    0.16378E-01   -0.27090E-02  4348   0.685E-01    0.106E-01
DAV:   2    -0.322400371169E+04   -0.32605E-02   -0.32533E-02  3888   0.120E-01    0.958E-02
DAV:   3    -0.322400367075E+04    0.40945E-04   -0.37880E-04  4408   0.129E-02    0.723E-02
DAV:   4    -0.322400363254E+04    0.38211E-04   -0.21212E-04  4192   0.904E-03    0.321E-02
DAV:   5    -0.322400363510E+04   -0.25674E-05   -0.31247E-05  3768   0.383E-03    0.197E-02
DAV:   6    -0.322400363549E+04   -0.38432E-06   -0.42342E-06  3800   0.143E-03    0.956E-03
DAV:   7    -0.322400363588E+04   -0.38916E-06   -0.10675E-06  2920   0.804E-04    0.242E-03
DAV:   8    -0.322400363588E+04   -0.12224E-08   -0.18224E-07  2392   0.314E-04
 1938 T=   320. E= -.32645175E+04 F= -.32962191E+04 E0= -.32962191E+04  EK= 0.31702E+02 SP= 0.00E+00 SK= 0.00E+00
       N       E                     dE             d eps       ncg     rms          rms(c)
DAV:   1    -0.322398584810E+04    0.17788E-01   -0.28678E-02  4628   0.685E-01    0.106E-01
DAV:   2    -0.322398919865E+04   -0.33505E-02   -0.33448E-02  3920   0.120E-01    0.958E-02
DAV:   3    -0.322398915938E+04    0.39266E-04   -0.39665E-04  4504   0.132E-02    0.719E-02
DAV:   4    -0.322398912205E+04    0.37334E-04   -0.21375E-04  4200   0.909E-03    0.317E-02
DAV:   5    -0.322398912443E+04   -0.23863E-05   -0.30292E-05  3744   0.379E-03    0.196E-02
DAV:   6    -0.322398912475E+04   -0.31955E-06   -0.44506E-06  3816   0.147E-03    0.920E-03
DAV:   7    -0.322398912508E+04   -0.32708E-06   -0.10069E-06  2912   0.771E-04    0.243E-03
DAV:   8    -0.322398912508E+04    0.33469E-08   -0.15203E-07  2360   0.293E-04
 1939 T=   320. E= -.32645176E+04 F= -.32961991E+04 E0= -.32961991E+04  EK= 0.31682E+02 SP= 0.00E+00 SK= 0.00E+00
       N       E                     dE             d eps       ncg     rms          rms(c)
DAV:   1    -0.322396825726E+04    0.20868E-01   -0.30310E-02  4924   0.684E-01    0.107E-01
DAV:   2    -0.322397161818E+04   -0.33609E-02   -0.33508E-02  3896   0.120E-01    0.926E-02
DAV:   3    -0.322397158888E+04    0.29300E-04   -0.40333E-04  4528   0.133E-02    0.689E-02
DAV:   4    -0.322397155964E+04    0.29236E-04   -0.18899E-04  4232   0.882E-03    0.297E-02
DAV:   5    -0.322397156228E+04   -0.26315E-05   -0.29233E-05  3760   0.370E-03    0.179E-02
DAV:   6    -0.322397156265E+04   -0.37412E-06   -0.40939E-06  3816   0.140E-03    0.856E-03
DAV:   7    -0.322397156303E+04   -0.38167E-06   -0.82045E-07  2896   0.701E-04    0.229E-03
DAV:   8    -0.322397156304E+04   -0.98080E-08   -0.11757E-07  2328   0.261E-04
 1940 T=   319. E= -.32645177E+04 F= -.32961767E+04 E0= -.32961767E+04  EK= 0.31659E+02 SP= 0.00E+00 SK= 0.00E+00
       N       E                     dE             d eps       ncg     rms          rms(c)
DAV:   1    -0.322394509811E+04    0.26465E-01   -0.29781E-02  4780   0.684E-01    0.105E-01
DAV:   2    -0.322394836748E+04   -0.32694E-02   -0.32583E-02  3904   0.119E-01    0.901E-02
DAV:   3    -0.322394834354E+04    0.23938E-04   -0.38294E-04  4528   0.130E-02    0.670E-02
DAV:   4    -0.322394831887E+04    0.24677E-04   -0.18821E-04  4256   0.905E-03    0.277E-02
DAV:   5    -0.322394832195E+04   -0.30856E-05   -0.30867E-05  3752   0.381E-03    0.173E-02
DAV:   6    -0.322394832229E+04   -0.33835E-06   -0.40818E-06  3792   0.136E-03    0.898E-03
DAV:   7    -0.322394832282E+04   -0.52879E-06   -0.82113E-07  2880   0.725E-04    0.229E-03
DAV:   8    -0.322394832285E+04   -0.31388E-07   -0.14561E-07  2360   0.283E-04
 1941 T=   319. E= -.32645181E+04 F= -.32961491E+04 E0= -.32961491E+04  EK= 0.31631E+02 SP= 0.00E+00 SK= 0.00E+00
       N       E                     dE             d eps       ncg     rms          rms(c)
DAV:   1    -0.322391276570E+04    0.35557E-01   -0.26495E-02  4308   0.683E-01    0.103E-01
DAV:   2    -0.322391597258E+04   -0.32069E-02   -0.31968E-02  3872   0.119E-01    0.898E-02
DAV:   3    -0.322391594677E+04    0.25817E-04   -0.37030E-04  4448   0.129E-02    0.667E-02
DAV:   4    -0.322391592145E+04    0.25318E-04   -0.20084E-04  4248   0.921E-03    0.274E-02
DAV:   5    -0.322391592494E+04   -0.34961E-05   -0.31615E-05  3768   0.383E-03    0.176E-02
DAV:   6    -0.322391592542E+04   -0.47692E-06   -0.39024E-06  3744   0.133E-03    0.952E-03
DAV:   7    -0.322391592614E+04   -0.72340E-06   -0.97507E-07  2912   0.782E-04    0.236E-03
DAV:   8    -0.322391592623E+04   -0.87792E-07   -0.20383E-07  2528   0.322E-04
 1942 T=   319. E= -.32645181E+04 F= -.32961129E+04 E0= -.32961129E+04  EK= 0.31595E+02 SP= 0.00E+00 SK= 0.00E+00
       N       E                     dE             d eps       ncg     rms          rms(c)
DAV:   1    -0.322387040033E+04    0.45526E-01   -0.24360E-02  4172   0.682E-01    0.995E-02
DAV:   2    -0.322387351743E+04   -0.31171E-02   -0.31065E-02  3880   0.118E-01    0.902E-02
DAV:   3    -0.322387348471E+04    0.32724E-04   -0.35559E-04  4408   0.127E-02    0.673E-02
DAV:   4    -0.322387345314E+04    0.31568E-04   -0.22429E-04  4272   0.937E-03    0.274E-02
DAV:   5    -0.322387345693E+04   -0.37856E-05   -0.32764E-05  3752   0.386E-03    0.181E-02
DAV:   6    -0.322387345751E+04   -0.58637E-06   -0.33362E-06  3680   0.124E-03    0.102E-02
DAV:   7    -0.322387345839E+04   -0.87058E-06   -0.13578E-06  3008   0.877E-04    0.242E-03
DAV:   8    -0.322387345854E+04   -0.15451E-06   -0.23555E-07  2552   0.343E-04    0.131E-03
DAV:   9    -0.322387345857E+04   -0.25902E-07   -0.32154E-08  1960   0.139E-04
 1943 T=   318. E= -.32645179E+04 F= -.32960667E+04 E0= -.32960667E+04  EK= 0.31549E+02 SP= 0.00E+00 SK= 0.00E+00
       N       E                     dE             d eps       ncg     rms          rms(c)
DAV:   1    -0.322382020173E+04    0.53257E-01   -0.26235E-02  4520   0.681E-01    0.991E-02
DAV:   2    -0.322382338182E+04   -0.31801E-02   -0.31671E-02  3880   0.118E-01    0.899E-02
DAV:   3    -0.322382334659E+04    0.35228E-04   -0.36801E-04  4448   0.128E-02    0.670E-02
DAV:   4    -0.322382331019E+04    0.36403E-04   -0.23288E-04  4240   0.938E-03    0.272E-02
DAV:   5    -0.322382331377E+04   -0.35775E-05   -0.32573E-05  3744   0.384E-03    0.180E-02
DAV:   6    -0.322382331442E+04   -0.65913E-06   -0.30041E-06  3680   0.121E-03    0.998E-03
DAV:   7    -0.322382331527E+04   -0.84451E-06   -0.13433E-06  2920   0.868E-04    0.232E-03
DAV:   8    -0.322382331543E+04   -0.16014E-06   -0.21544E-07  2472   0.331E-04    0.126E-03
DAV:   9    -0.322382331546E+04   -0.27736E-07   -0.31076E-08  1960   0.135E-04
 1944 T=   318. E= -.32645177E+04 F= -.32960126E+04 E0= -.32960126E+04  EK= 0.31495E+02 SP= 0.00E+00 SK= 0.00E+00
       N       E                     dE             d eps       ncg     rms          rms(c)
DAV:   1    -0.322376659449E+04    0.56721E-01   -0.26992E-02  4616   0.680E-01    0.987E-02
DAV:   2    -0.322376978186E+04   -0.31874E-02   -0.31738E-02  3880   0.117E-01    0.881E-02
DAV:   3    -0.322376975298E+04    0.28885E-04   -0.37204E-04  4448   0.128E-02    0.656E-02
DAV:   4    -0.322376971977E+04    0.33206E-04   -0.20196E-04  4240   0.885E-03    0.271E-02
DAV:   5    -0.322376972306E+04   -0.32902E-05   -0.30805E-05  3752   0.368E-03    0.172E-02
DAV:   6    -0.322376972370E+04   -0.63702E-06   -0.28251E-06  3616   0.119E-03    0.915E-03
DAV:   7    -0.322376972443E+04   -0.72831E-06   -0.10283E-06  2880   0.781E-04    0.221E-03
DAV:   8    -0.322376972455E+04   -0.12109E-06   -0.17141E-07  2384   0.299E-04    0.116E-03
DAV:   9    -0.322376972457E+04   -0.23661E-07   -0.32063E-08  1960   0.136E-04
 1945 T=   317. E= -.32645175E+04 F= -.32959546E+04 E0= -.32959546E+04  EK= 0.31437E+02 SP= 0.00E+00 SK= 0.00E+00
       N       E                     dE             d eps       ncg     rms          rms(c)
DAV:   1    -0.322371314430E+04    0.56580E-01   -0.25814E-02  4560   0.679E-01    0.985E-02
DAV:   2    -0.322371630940E+04   -0.31651E-02   -0.31540E-02  3896   0.116E-01    0.862E-02
DAV:   3    -0.322371628630E+04    0.23107E-04   -0.36833E-04  4472   0.128E-02    0.641E-02
DAV:   4    -0.322371625690E+04    0.29398E-04   -0.17767E-04  4216   0.865E-03    0.268E-02
DAV:   5    -0.322371625970E+04   -0.28050E-05   -0.29536E-05  3752   0.365E-03    0.167E-02
DAV:   6    -0.322371626023E+04   -0.52385E-06   -0.29028E-06  3624   0.119E-03    0.860E-03
DAV:   7    -0.322371626082E+04   -0.59239E-06   -0.84267E-07  2880   0.730E-04    0.216E-03
DAV:   8    -0.322371626089E+04   -0.68569E-07   -0.15661E-07  2336   0.289E-04
 1946 T=   316. E= -.32645176E+04 F= -.32958961E+04 E0= -.32958961E+04  EK= 0.31379E+02 SP= 0.00E+00 SK= 0.00E+00
       N       E                     dE             d eps       ncg     rms          rms(c)
DAV:   1    -0.322365937542E+04    0.56885E-01   -0.22929E-02  4380   0.679E-01    0.987E-02
DAV:   2    -0.322366239646E+04   -0.30210E-02   -0.30130E-02  3888   0.115E-01    0.875E-02
DAV:   3    -0.322366236907E+04    0.27388E-04   -0.33729E-04  4432   0.123E-02    0.656E-02
DAV:   4    -0.322366233798E+04    0.31091E-04   -0.18390E-04  4208   0.887E-03    0.276E-02
DAV:   5    -0.322366234050E+04   -0.25216E-05   -0.30487E-05  3752   0.375E-03    0.176E-02
DAV:   6    -0.322366234084E+04   -0.33699E-06   -0.35623E-06  3776   0.129E-03    0.910E-03
DAV:   7    -0.322366234137E+04   -0.52806E-06   -0.88178E-07  2848   0.762E-04    0.225E-03
DAV:   8    -0.322366234141E+04   -0.46348E-07   -0.19091E-07  2480   0.317E-04
 1947 T=   316. E= -.32645177E+04 F= -.32958367E+04 E0= -.32958367E+04  EK= 0.31319E+02 SP= 0.00E+00 SK= 0.00E+00
       N       E                     dE             d eps       ncg     rms          rms(c)
DAV:   1    -0.322360308336E+04    0.59258E-01   -0.25022E-02  4428   0.679E-01    0.103E-01
DAV:   2    -0.322360617970E+04   -0.30963E-02   -0.30913E-02  3912   0.117E-01    0.912E-02
DAV:   3    -0.322360614540E+04    0.34302E-04   -0.35471E-04  4416   0.126E-02    0.684E-02
DAV:   4    -0.322360610954E+04    0.35857E-04   -0.19264E-04  4208   0.893E-03    0.294E-02
DAV:   5    -0.322360611163E+04   -0.20813E-05   -0.29985E-05  3728   0.375E-03    0.184E-02
DAV:   6    -0.322360611186E+04   -0.23709E-06   -0.36900E-06  3792   0.134E-03    0.905E-03
DAV:   7    -0.322360611222E+04   -0.35632E-06   -0.89663E-07  2864   0.750E-04    0.228E-03
DAV:   8    -0.322360611224E+04   -0.24302E-07   -0.17271E-07  2416   0.306E-04
 1948 T=   315. E= -.32645176E+04 F= -.32957748E+04 E0= -.32957748E+04  EK= 0.31257E+02 SP= 0.00E+00 SK= 0.00E+00
       N       E                     dE             d eps       ncg     rms          rms(c)
DAV:   1    -0.322354423642E+04    0.61876E-01   -0.25976E-02  4500   0.678E-01    0.105E-01
DAV:   2    -0.322354741376E+04   -0.31773E-02   -0.31773E-02  3920   0.118E-01    0.946E-02
DAV:   3    -0.322354737266E+04    0.41098E-04   -0.37170E-04  4424   0.129E-02    0.709E-02
DAV:   4    -0.322354733123E+04    0.41430E-04   -0.20279E-04  4200   0.897E-03    0.309E-02
DAV:   5    -0.322354733287E+04   -0.16452E-05   -0.30523E-05  3760   0.379E-03    0.191E-02
DAV:   6    -0.322354733297E+04   -0.93438E-07   -0.36151E-06  3776   0.134E-03    0.933E-03
DAV:   7    -0.322354733318E+04   -0.20930E-06   -0.94013E-07  2880   0.756E-04    0.234E-03
DAV:   8    -0.322354733317E+04    0.35216E-08   -0.16083E-07  2368   0.299E-04
 1949 T=   315. E= -.32645174E+04 F= -.32957103E+04 E0= -.32957103E+04  EK= 0.31193E+02 SP= 0.00E+00 SK= 0.00E+00
       N       E                     dE             d eps       ncg     rms          rms(c)
DAV:   1    -0.322348463618E+04    0.62697E-01   -0.24259E-02  4516   0.676E-01    0.103E-01
DAV:   2    -0.322348771421E+04   -0.30780E-02   -0.30756E-02  3904   0.116E-01    0.937E-02
DAV:   3    -0.322348767332E+04    0.40887E-04   -0.35795E-04  4488   0.126E-02    0.703E-02
DAV:   4    -0.322348763229E+04    0.41030E-04   -0.19807E-04  4224   0.882E-03    0.306E-02
DAV:   5    -0.322348763393E+04   -0.16371E-05   -0.30528E-05  3776   0.375E-03    0.188E-02
DAV:   6    -0.322348763403E+04   -0.10002E-06   -0.32824E-06  3784   0.128E-03    0.949E-03
DAV:   7    -0.322348763420E+04   -0.17195E-06   -0.94581E-07  2864   0.763E-04    0.231E-03
DAV:   8    -0.322348763419E+04    0.15891E-07   -0.16491E-07  2360   0.297E-04
 1950 T=   314. E= -.32645172E+04 F= -.32956454E+04 E0= -.32956454E+04  EK= 0.31128E+02 SP= 0.00E+00 SK= 0.00E+00
       N       E                     dE             d eps       ncg     rms          rms(c)
DAV:   1    -0.322342515188E+04    0.62482E-01   -0.24633E-02  4852   0.674E-01    0.101E-01
DAV:   2    -0.322342820133E+04   -0.30495E-02   -0.30462E-02  3912   0.115E-01    0.903E-02
DAV:   3    -0.322342816967E+04    0.31658E-04   -0.35873E-04  4520   0.127E-02    0.676E-02
DAV:   4    -0.322342813637E+04    0.33298E-04   -0.18043E-04  4224   0.867E-03    0.292E-02
