CHNH3PbI3 tetr                          
           1
    25.054199    0.000000    0.000000
     0.000000   25.054207    0.000000
     0.000000    0.000000   25.348000
   C    H    I    N    Pb
  64 384 192  64  64
Direct configuration=    10
   0.13849534  0.11045040  0.15485517
   0.13850374  0.11044656  0.65484830
   0.13849542  0.61044999  0.15485509
   0.13849642  0.61045125  0.65485321
   0.63849369  0.11045237  0.15485477
   0.63849707  0.11044559  0.65485395
   0.63850450  0.61044667  0.15484740
   0.63850653  0.61045308  0.65484956
   0.38731971  0.36199687  0.15501150
   0.38732999  0.36199868  0.65501178
   0.38731869  0.86199585  0.15501093
   0.38732884  0.86199788  0.65501475
   0.88732760  0.36200066  0.15501330
   0.88732849  0.36200056  0.65501328
   0.88732684  0.86199854  0.15501825
   0.88732750  0.86199687  0.65501223
   0.14771247  0.36642528  0.14186814
   0.14772499  0.36642091  0.64183724
   0.14770250  0.86643553  0.14187011
   0.14771542  0.86643059  0.64185656
   0.64772553  0.36641843  0.14184035
   0.64773824  0.36642321  0.64182286
   0.64772699  0.86641312  0.14184067
   0.64772602  0.86642095  0.64183891
   0.39489822  0.12259479  0.15054308
   0.39489204  0.12258148  0.65053960
   0.39490128  0.62260598  0.15055785
   0.39490456  0.62259620  0.65054025
   0.89491031  0.12259217  0.15052791
   0.89490181  0.12259203  0.65054131
   0.89490267  0.62259245  0.15054322
   0.89490923  0.62260633  0.65054170
   0.14504045  0.13306437  0.39580594
   0.14503199  0.13305108  0.89581117
   0.14503410  0.63307274  0.39579741
   0.14502310  0.63306105  0.89582196
   0.64503767  0.13307613  0.39580526
   0.64503023  0.13305815  0.89582303
   0.64503917  0.63306545  0.39581096
   0.64503631  0.63307878  0.89580319
   0.39478683  0.38153837  0.39937393
   0.39478557  0.38153730  0.89937802
   0.39478882  0.88153364  0.39936983
   0.39477136  0.88152741  0.89939675
   0.89478654  0.38153132  0.39937746
   0.89478452  0.38154368  0.89937200
   0.89478204  0.88154412  0.39936779
   0.89477671  0.88153541  0.89938937
   0.14164258  0.39063334  0.40120016
   0.14162911  0.39063851  0.90119903
   0.14163963  0.89063756  0.40119959
   0.14164546  0.89063904  0.90119889
   0.64164344  0.39063104  0.40120658
   0.64164638  0.39063195  0.90119694
   0.64165183  0.89062911  0.40119632
   0.64164340  0.89063072  0.90119904
   0.38683223  0.14328073  0.40135509
   0.38683097  0.14328592  0.90135002
   0.38683403  0.64328234  0.40135709
   0.38682952  0.64327505  0.90135396
   0.88683825  0.14328777  0.40136302
   0.88683470  0.14327989  0.90136155
   0.88683541  0.64327423  0.40135544
   0.88683092  0.64328993  0.90136538
   0.39147190  0.08515339  0.17293721
   0.39145062  0.08514771  0.67294520
   0.39149122  0.58516502  0.17295530
   0.39148539  0.58516237  0.67294712
   0.89148705  0.08516094  0.17294030
   0.89147800  0.08516469  0.67295971
   0.89147896  0.58515766  0.17294975
   0.89150173  0.58517332  0.67295175
   0.14302725  0.32623336  0.15870182
   0.14305424  0.32621796  0.65864970
   0.14302010  0.82623817  0.15869205
   0.14304396  0.82623142  0.65867753
   0.64305384  0.32621284  0.15864647
   0.64309111  0.32621746  0.65863440
   0.64305611  0.82621187  0.15865716
   0.64305618  0.82621743  0.65865014
   0.16042469  0.39463606  0.17245284
   0.16044496  0.39461773  0.67243400
   0.16040641  0.89463998  0.17246445
   0.16042131  0.89463555  0.67245016
   0.66044458  0.39460985  0.17244155
   0.66044766  0.39462601  0.67241712
   0.66044907  0.89461251  0.17243400
   0.66044288  0.89461682  0.67243707
   0.40314521  0.15614327  0.17711588
   0.40315517  0.15613527  0.67710277
   0.40312410  0.65616160  0.17712956
   0.40315495  0.65615471  0.67709984
   0.90316996  0.15615292  0.17708251
   0.90316022  0.15615733  0.67709117
   0.90315627  0.65614959  0.17710429
   0.90314302  0.65616997  0.67710045
   0.17706167  0.36578257  0.10964854
   0.17706021  0.36580289  0.60960442
   0.17705612  0.86580642  0.10965373
   0.17706137  0.86580953  0.60963367
   0.67706145  0.36580492  0.10960820
   0.67706808  0.36582284  0.60958472
   0.67706091  0.86579118  0.10960667
   0.67706352  0.86580531  0.60960807
   0.42643645  0.11917600  0.12060265
   0.42642758  0.11913841  0.62059923
   0.42644891  0.61920323  0.12062334
   0.42643797  0.61916877  0.62059534
   0.92643931  0.11915543  0.12057958
   0.92643298  0.11915003  0.62059533
   0.92643618  0.61916258  0.12059848
   0.92644838  0.61918999  0.62060105
   0.31232100  0.13366450  0.15184947
   0.31231742  0.13367701  0.65184361
   0.31231844  0.63363733  0.15184876
   0.31232609  0.63365559  0.65185613
   0.81233350  0.13366066  0.15185008
   0.81232486  0.13365759  0.65185792
   0.81232559  0.63365970  0.15185847
   0.81232784  0.63363883  0.65184823
   0.06638277  0.38298059  0.15025891
   0.06639482  0.38296038  0.65027059
   0.06637164  0.88298308  0.15025713
   0.06638224  0.88296541  0.65026393
   0.56639585  0.38295993  0.15027339
   0.56640108  0.38292094  0.65026979
   0.56639703  0.88295418  0.15027465
   0.56639467  0.88295790  0.65026768
   0.33358644  0.10477148  0.09608348
   0.33357546  0.10477342  0.59608108
   0.33360593  0.60474192  0.09609181
   0.33358674  0.60475218  0.59609279
   0.83358688  0.10475671  0.09608554
   0.83358251  0.10474863  0.59609927
   0.83358477  0.60475924  0.09609378
   0.83360302  0.60473436  0.59609215
   0.08232051  0.36150158  0.08949553
   0.08230998  0.36151233  0.58948855
   0.08231501  0.86151436  0.08948934
   0.08231508  0.86149838  0.58949188
   0.58231120  0.36151697  0.08949037
   0.58231674  0.36147564  0.58948551
   0.58231062  0.86150099  0.08949511
   0.58231444  0.86151058  0.58948623
   0.34313289  0.16981895  0.10424766
   0.34314183  0.16981868  0.60423908
   0.34311863  0.66979718  0.10424398
   0.34312591  0.66980419  0.60424282
   0.84313382  0.16980659  0.10423493
   0.84312584  0.16980014  0.60424036
   0.84313030  0.66980898  0.10424846
   0.84311832  0.66979078  0.60423194
   0.09755608  0.42336017  0.10619841
   0.09754260  0.42336473  0.60621556
   0.09754512  0.92337227  0.10620489
   0.09753828  0.92335965  0.60620436
   0.59754550  0.42336680  0.10622275
   0.59751918  0.42333868  0.60620871
   0.59754343  0.92335434  0.10621637
   0.59754414  0.92336392  0.60621486
   0.35503493  0.34902377  0.07963165
   0.35503376  0.34902975  0.57963636
   0.35502841  0.84903064  0.07963123
   0.35504003  0.84902177  0.57963711
   0.85503141  0.34902540  0.07963882
   0.85504292  0.34901475  0.57963632
   0.85504187  0.84901466  0.07963975
   0.85503799  0.84901951  0.57963531
   0.10555580  0.09840129  0.07983697
   0.10555250  0.09840487  0.57983267
   0.10555617  0.59840415  0.07983603
   0.10555806  0.59839852  0.57983532
   0.60555132  0.09840531  0.07983674
   0.60555725  0.09839615  0.57983576
   0.60555154  0.59840858  0.07983226
   0.60555745  0.59839815  0.57983705
   0.40525095  0.39267525  0.08015412
   0.40525801  0.39267154  0.58015139
   0.40524574  0.89268059  0.08015410
   0.40525502  0.89267435  0.58015553
   0.90524892  0.39267444  0.08015237
   0.90525409  0.39267168  0.58015261
   0.90525160  0.89267237  0.08015661
   0.90525197  0.89267303  0.58015215
   0.15380286  0.14427058  0.08073173
   0.15380104  0.14427340  0.58072529
   0.15380477  0.64427195  0.08073256
   0.15380135  0.64427237  0.58072926
   0.65379586  0.14427736  0.08073279
   0.65380149  0.14426888  0.58073110
   0.65379371  0.64428347  0.08072680
   0.65380137  0.64427056  0.58072221
   0.34519430  0.41212953  0.10219179
   0.34520713  0.41213765  0.60219515
   0.34519104  0.91213400  0.10219653
   0.34519951  0.91212829  0.60219448
   0.84519634  0.41213244  0.10219671
   0.84519639  0.41212284  0.60218916
   0.84519356  0.91212178  0.10219366
   0.84519710  0.91212565  0.60219253
   0.09348679  0.16042179  0.10436723
   0.09348896  0.16042399  0.60437017
   0.09348887  0.66042370  0.10436795
   0.09348447  0.66041889  0.60436500
   0.59347969  0.16042395  0.10437082
   0.59348495  0.16041607  0.60436813
   0.59348061  0.66042341  0.10437551
   0.59348825  0.66041921  0.60436588
   0.16268866  0.07433133  0.14909952
   0.16269612  0.07432768  0.64908523
   0.16268814  0.57433005  0.14909936
   0.16269081  0.57433185  0.64909850
   0.66268990  0.07433538  0.14909575
   0.66269049  0.07432567  0.64909683
   0.66270426  0.57433292  0.14907914
   0.66269990  0.57433334  0.64909291
   0.40965884  0.32449411  0.15086041
   0.40966347  0.32449228  0.65085911
   0.40965691  0.82449275  0.15085563
   0.40966843  0.82449553  0.65086358
   0.90966433  0.32449670  0.15086049
   0.90967189  0.32449976  0.65086576
   0.90967060  0.82449882  0.15087009
   0.90966631  0.82449373  0.65086097
   0.35121044  0.35627264  0.17892427
   0.35122247  0.35627963  0.67892839
   0.35121048  0.85627031  0.17892508
   0.35122092  0.85627330  0.67892911
   0.85122180  0.35627904  0.17893086
   0.85122072  0.35627498  0.67892796
   0.85121935  0.85627201  0.17893179
   0.85122001  0.85627337  0.67892789
   0.10300610  0.10200128  0.17887315
   0.10301753  0.10199513  0.67886956
   0.10300523  0.60200067  0.17887217
   0.10300772  0.60200178  0.67887178
   0.60300615  0.10199898  0.17887364
   0.60300892  0.10199668  0.67887333
   0.60302033  0.60198517  0.17886861
   0.60302124  0.60200452  0.67887311
   0.16242242  0.14188577  0.17328372
   0.16243277  0.14187978  0.67327629
   0.16242233  0.64188441  0.17328520
   0.16242272  0.64188753  0.67328081
   0.66241925  0.14188865  0.17328323
   0.66242512  0.14188085  0.67328142
   0.66242904  0.64188291  0.17327819
   0.66243555  0.64189066  0.67327271
   0.41268681  0.39279241  0.17256659
   0.41270308  0.39279052  0.67256441
   0.41268720  0.89278939  0.17256712
   0.41269577  0.89279436  0.67256757
   0.91269908  0.39279553  0.17256294
   0.91269236  0.39280052  0.67256414
   0.91269016  0.89279881  0.17256939
   0.91269604  0.89279316  0.67256371
   0.34793040  0.32631033  0.35643378
   0.34792437  0.32631507  0.85643823
   0.34792612  0.82630995  0.35643491
   0.34792474  0.82630900  0.85643596
   0.84792817  0.32630847  0.35643648
   0.84792945  0.32630832  0.85644249
   0.84792988  0.82630756  0.35643756
   0.84792971  0.82631633  0.85642939
   0.09653723  0.07611613  0.35746196
   0.09652451  0.07611178  0.85746001
   0.09653415  0.57611618  0.35746104
   0.09654439  0.57610929  0.85745321
   0.59654386  0.07612025  0.35746115
   0.59654509  0.07611435  0.85745137
   0.59654118  0.57611621  0.35746265
   0.59654416  0.57611805  0.85746277
   0.33419461  0.38919556  0.34152106
   0.33419625  0.38919983  0.84152538
   0.33419330  0.88919519  0.34152264
   0.33420369  0.88919622  0.84151848
   0.83420031  0.38919403  0.34152030
   0.83418989  0.38918982  0.84152135
   0.83418692  0.88918891  0.34151726
   0.83420246  0.88920445  0.84151999
   0.08114503  0.13822788  0.34131372
   0.08114239  0.13822625  0.84131410
   0.08112848  0.63822524  0.34131587
   0.08114642  0.63822055  0.84130786
   0.58113484  0.13823004  0.34132249
   0.58115424  0.13822933  0.84131260
   0.58115048  0.63822739  0.34131086
   0.58113454  0.63822606  0.84131716
   0.31291674  0.36497136  0.39949409
   0.31291386  0.36497960  0.89949717
   0.31291811  0.86497326  0.39949716
   0.31289885  0.86497338  0.89948337
   0.81291554  0.36497457  0.39949287
   0.81291595  0.36497363  0.89949874
   0.81291364  0.86497056  0.39949448
   0.81290590  0.86497481  0.89948485
   0.06346508  0.11559023  0.40128190
   0.06345368  0.11558736  0.90127925
   0.06346230  0.61558385  0.40128688
   0.06344993  0.61557164  0.90126599
   0.56346749  0.11558240  0.40128971
   0.56345610  0.11557742  0.90126852
   0.56346333  0.61559151  0.40127714
   0.56346623  0.61558338  0.90128622
   0.17690391  0.12827109  0.36643594
   0.17689545  0.12826056  0.86644173
   0.17688755  0.62831200  0.36641274
   0.17689374  0.62829565  0.86645667
   0.67689379  0.12831870  0.36642196
   0.67690115  0.12828492  0.86645862
   0.67690701  0.62826769  0.36644702
   0.67689429  0.62831169  0.86642444
   0.42896865  0.37172020  0.37399731
   0.42896635  0.37170653  0.87400620
   0.42896691  0.87171715  0.37398923
   0.42896122  0.87170857  0.87403203
   0.92896886  0.37170411  0.37400597
   0.92896514  0.37172472  0.87399465
   0.92896244  0.87172743  0.37398999
   0.92896438  0.87172084  0.87402032
   0.15323797  0.10849741  0.43069737
   0.15322594  0.10847699  0.93069841
   0.15325676  0.60848795  0.43067006
   0.15322076  0.60847914  0.93070297
   0.65325906  0.10848958  0.43067643
   0.65322287  0.10847601  0.93070495
   0.65322838  0.60850302  0.43070679
   0.65325382  0.60850226  0.93068250
   0.39733408  0.36010040  0.43704177
   0.39732662  0.36010759  0.93704955
   0.39734083  0.86009328  0.43703607
   0.39730148  0.86008547  0.93706322
   0.89732630  0.36009820  0.43704802
   0.89733687  0.36011070  0.93704225
   0.89733516  0.86011084  0.43703689
   0.89731325  0.86009166  0.93705435
   0.39315127  0.42477802  0.40657157
   0.39315909  0.42477803  0.90656667
   0.39315515  0.92477262  0.40657134
   0.39313834  0.92476641  0.90659860
   0.89315872  0.42477176  0.40656951
   0.89314737  0.42478418  0.90656504
   0.89314300  0.92478411  0.40656179
   0.89314118  0.92477396  0.90659396
   0.14122411  0.17520293  0.40724847
   0.14121830  0.17518761  0.90726161
   0.14120469  0.67520330  0.40726592
   0.14118813  0.67519232  0.90728623
   0.64120642  0.17520543  0.40727623
   0.64120278  0.17519017  0.90728432
   0.64122223  0.67520550  0.40724789
   0.64120525  0.67521188  0.90726219
   0.40541201  0.09631288  0.33537854
   0.40541043  0.09631209  0.83537696
   0.40541234  0.59632090  0.33537512
   0.40540804  0.59630496  0.83537925
   0.90541533  0.09631807  0.33538738
   0.90541117  0.09632387  0.83537482
   0.90540526  0.59630946  0.33537436
   0.90540321  0.59630482  0.83539877
   0.15464475  0.34421909  0.33351438
   0.15464586  0.34420546  0.83353086
   0.15464784  0.84421738  0.33351907
   0.15464758  0.84422196  0.83351416
   0.65464481  0.34421853  0.33351959
   0.65464436  0.34422397  0.83350655
   0.65464003  0.84420756  0.33351291
   0.65463943  0.84421002  0.83351511
   0.35655794  0.14036063  0.32414189
   0.35655094  0.14035308  0.82414013
   0.35655738  0.64036858  0.32414587
   0.35655213  0.64035093  0.82414144
   0.85656231  0.14036670  0.32415191
   0.85655631  0.14037207  0.82414982
   0.85654972  0.64035661  0.32414785
   0.85655023  0.64035254  0.82415507
   0.10642694  0.38974352  0.32592627
   0.10642391  0.38972103  0.82591858
   0.10643456  0.88974546  0.32592101
   0.10643693  0.88975345  0.82592111
   0.60643016  0.38974688  0.32593330
   0.60642927  0.38975197  0.82592357
   0.60642780  0.88973852  0.32592716
   0.60642251  0.88973539  0.82592636
   0.34402495  0.08426574  0.35851758
   0.34402593  0.08426178  0.85852193
   0.34402628  0.58426979  0.35851633
   0.34402213  0.58425711  0.85852056
   0.84402789  0.08427108  0.35852821
   0.84402511  0.08427075  0.85851606
   0.84402177  0.58426013  0.35852239
   0.84401660  0.58426646  0.85854418
   0.09457242  0.33347285  0.36028697
   0.09457338  0.33346133  0.86029567
   0.09457176  0.83347778  0.36028447
   0.09457192  0.83348390  0.86028196
   0.59457029  0.33347530  0.36029171
   0.59457372  0.33347852  0.86028011
   0.59456940  0.83347166  0.36029300
   0.59456858  0.83346876  0.86029283
   0.16788741  0.42357678  0.38914557
   0.16786863  0.42358538  0.88913874
   0.16788588  0.92358054  0.38914620
   0.16789303  0.92358118  0.88914592
   0.66788849  0.42357387  0.38915315
   0.66789338  0.42357453  0.88914446
   0.66789922  0.92356809  0.38913613
   0.66789075  0.92357044  0.88914086
   0.41176040  0.17757300  0.39035354
   0.41175766  0.17757740  0.89034232
   0.41175905  0.67757761  0.39035722
   0.41175725  0.67756738  0.89034991
   0.91176253  0.17758247  0.39035824
   0.91176114  0.17757519  0.89036329
   0.91176139  0.67756692  0.39035110
   0.91175241  0.67758377  0.89035126
   0.16383359  0.36179586  0.42509827
   0.16382336  0.36181368  0.92510756
   0.16382840  0.86180142  0.42510133
   0.16383341  0.86180073  0.92509803
   0.66383543  0.36179206  0.42510241
   0.66383646  0.36179154  0.92509224
   0.66384361  0.86179108  0.42509309
   0.66383265  0.86179367  0.92509965
   0.40945760  0.11579615  0.42644101
   0.40945780  0.11580606  0.92643881
   0.40946334  0.61579655  0.42643820
   0.40945475  0.61579225  0.92644095
   0.90946932  0.11580569  0.42644563
   0.90946391  0.11579218  0.92644006
   0.90946604  0.61578949  0.42643635
   0.90946565  0.61581353  0.92645032
   0.35031246  0.15642901  0.42151907
   0.35031129  0.15643617  0.92151264
   0.35031500  0.65642515  0.42152495
   0.35031004  0.65642460  0.92151816
   0.85032082  0.15643321  0.42153128
   0.85031654  0.15642308  0.92153126
   0.85031922  0.65642145  0.42152626
   0.85031328  0.65643674  0.92153362
   0.10688572  0.40569440  0.42304870
   0.10686609  0.40569881  0.92304012
   0.10688102  0.90570028  0.42304439
   0.10688819  0.90570218  0.92304547
   0.60688769  0.40569189  0.42305583
   0.60689069  0.40569415  0.92304687
   0.60690067  0.90569654  0.42304897
   0.60688845  0.90569792  0.92304659
   0.97754542  0.98221066  0.12251642
   0.97754308  0.98221200  0.62251659
   0.97754511  0.48221678  0.12251590
   0.97754432  0.48221229  0.62251679
   0.47754423  0.98221126  0.12251677
   0.47754591  0.98221048  0.62251650
   0.47754557  0.48221007  0.12251732
   0.47754985  0.48222029  0.62251710
   0.22916496  0.23307844  0.12300217
   0.22916667  0.23307498  0.62300403
   0.22916474  0.73307882  0.12300301
   0.22916562  0.73307936  0.62300278
   0.72916600  0.23307439  0.12300568
   0.72916463  0.23307917  0.62300232
   0.72916340  0.73307598  0.12300293
   0.72916711  0.73307715  0.62300560
   0.97910053  0.01260938  0.37226722
   0.97909927  0.01260664  0.87226611
   0.97910286  0.51259884  0.37226659
   0.97909585  0.51261212  0.87226808
   0.47910083  0.01260233  0.37226626
   0.47910377  0.01260655  0.87226780
   0.47910090  0.51260454  0.37226639
   0.47910217  0.51259914  0.87226794
   0.23127850  0.26333377  0.37188791
   0.23128372  0.26333326  0.87188698
   0.23128219  0.76333845  0.37188727
   0.23127921  0.76333906  0.87188555
   0.73128411  0.26333734  0.37188722
   0.73127646  0.26333708  0.87188613
   0.73127854  0.76333200  0.37188705
   0.73128100  0.76333289  0.87188586
   0.27069273  0.01555106  0.36267738
   0.27069037  0.01554720  0.86267717
   0.27069260  0.51555272  0.36267621
   0.27068295  0.51554621  0.86267308
   0.77069090  0.01555409  0.36267429
   0.77069029  0.01555297  0.86267354
   0.77068345  0.51554742  0.36267425
   0.77068296  0.51554899  0.86267639
   0.01947355  0.26331275  0.36439943
   0.01946609  0.26331020  0.86439840
   0.01947025  0.76332380  0.36440156
   0.01947356  0.76332514  0.86439890
   0.51947858  0.26331145  0.36439733
   0.51947702  0.26331428  0.86439501
   0.51947643  0.76330904  0.36439861
   0.51946699  0.76331350  0.86439823
   0.27029922  0.98690604  0.11313937
   0.27030188  0.98690152  0.61314004
   0.27030390  0.48690346  0.11313886
   0.27030368  0.48690396  0.61314039
   0.77030493  0.98690074  0.11313734
   0.77030470  0.98690278  0.61313705
   0.77030301  0.48690503  0.11313912
   0.77030793  0.48690139  0.61313652
   0.02061679  0.23609613  0.11427113
   0.02061482  0.23609413  0.61427170
   0.02061491  0.73609383  0.11427377
   0.02061026  0.73609115  0.61426844
   0.52060776  0.23609781  0.11426785
   0.52060949  0.23608678  0.61427121
   0.52060710  0.73609371  0.11426820
   0.52061475  0.73609422  0.61427070
   0.26242091  0.14488984  0.01059455
   0.26241952  0.14488730  0.51059626
   0.26242081  0.64488705  0.01059336
   0.26242306  0.64488890  0.51059932
   0.76242119  0.14488799  0.01059514
   0.76242357  0.14488918  0.51059939
   0.76242188  0.64488954  0.01059887
   0.76242323  0.64488592  0.51059495
   0.51227522  0.39487706  0.00980219
   0.51227218  0.39487316  0.50981155
   0.51227626  0.89487504  0.00980463
   0.51227530  0.89487527  0.50980192
   0.01227325  0.39487500  0.00980642
   0.01227559  0.39487549  0.50980373
   0.01227348  0.89487599  0.00980154
   0.01227421  0.89487635  0.50980408
   0.27865960  0.38105826  0.98542407
   0.27866315  0.38105783  0.48542432
   0.27865860  0.88105965  0.98542460
   0.27866198  0.88105833  0.48542481
   0.77866192  0.38105715  0.98542397
   0.77866137  0.38105696  0.48542383
   0.77865916  0.88105872  0.98542456
   0.77866066  0.88105896  0.48542189
   0.02923672  0.12996827  0.98574400
   0.02924405  0.12996688  0.48574027
   0.02924207  0.62996736  0.98573948
   0.02923826  0.62996800  0.48573676
   0.52924084  0.12996703  0.98573919
   0.52923516  0.12996756  0.48574374
   0.52923879  0.62996818  0.98573900
   0.52924175  0.62996630  0.48573892
   0.12766257  0.50377503  0.04171422
   0.12766208  0.50378125  0.54170817
   0.12766227  0.00377907  0.04171002
   0.12766147  0.00377904  0.54171602
   0.62766009  0.50378345  0.04171183
   0.62766003  0.50377988  0.54170968
   0.62766159  0.00377742  0.04171203
   0.62766318  0.00378099  0.54170855
   0.37825048  0.25490986  0.04160546
   0.37825168  0.25490689  0.54160750
   0.37824840  0.75491239  0.04160104
   0.37825229  0.75491075  0.54160611
   0.87825219  0.25490970  0.04160739
   0.87825238  0.25491134  0.54160779
   0.87825345  0.75491203  0.04161071
   0.87824932  0.75491281  0.54160130
   0.36038911  0.00568378  0.99635723
   0.36038422  0.00568192  0.49635328
   0.36038393  0.50568137  0.99634554
   0.36038826  0.50568662  0.49635804
   0.86038600  0.00568267  0.99635508
   0.86039009  0.00568686  0.49635699
   0.86038655  0.50568888  0.99635268
   0.86038188  0.50568286  0.49634213
   0.11026798  0.25506243  0.99800069
   0.11026923  0.25506267  0.49800499
   0.11026883  0.75506351  0.99800595
   0.11026876  0.75506346  0.49800500
   0.61026814  0.25506312  0.99800388
   0.61026877  0.25506318  0.49800734
   0.61026830  0.75506183  0.99800391
   0.61026896  0.75506275  0.49800552
   0.12956848  0.99799689  0.29180954
   0.12956705  0.99799901  0.79181165
   0.12956803  0.49799950  0.29181327
   0.12956505  0.49800433  0.79180921
   0.62957105  0.99800022  0.29181326
   0.62956679  0.99800237  0.79180975
   0.62956980  0.49799290  0.29181127
   0.62956695  0.49800023  0.79181049
   0.38163938  0.24963429  0.29091431
   0.38163794  0.24963825  0.79091333
   0.38163715  0.74963082  0.29091468
   0.38163627  0.74962646  0.79091654
   0.88163803  0.24963246  0.29091472
   0.88163455  0.24962825  0.79091736
   0.88163683  0.74962788  0.29091458
   0.88163687  0.74963444  0.79091620
   0.35945367  0.49328839  0.24577404
   0.35945171  0.49329019  0.74577349
   0.35945430  0.99328908  0.24577524
   0.35945299  0.99329044  0.74577268
   0.85945460  0.49328885  0.24577364
   0.85945547  0.49328625  0.74577634
   0.85945643  0.99328507  0.24577364
   0.85945231  0.99329026  0.74577226
   0.11083580  0.24244501  0.24854723
   0.11083386  0.24243393  0.74854963
   0.11083772  0.74244012  0.24855148
   0.11083106  0.74245099  0.74853536
   0.61083778  0.24243939  0.24854005
   0.61083479  0.24244123  0.74853221
   0.61083582  0.74244621  0.24854464
   0.61083420  0.74244541  0.74854227
   0.28012062  0.12008594  0.23914932
   0.28012047  0.12008669  0.73914963
   0.28012080  0.62008435  0.23914659
   0.28012113  0.62008616  0.73914633
   0.78014759  0.12008635  0.23914509
   0.78011944  0.12008557  0.73915044
   0.78011909  0.62008538  0.23915140
   0.78014645  0.62008726  0.73914683
   0.03337887  0.37021709  0.23670537
   0.03338153  0.37021652  0.73670780
   0.03337871  0.87021745  0.23670899
   0.03337750  0.87021841  0.73670930
   0.53338256  0.37021643  0.23671151
   0.53338020  0.37021624  0.73670364
   0.53337843  0.87021614  0.23671137
   0.53338093  0.87021780  0.73670655
   0.25929304  0.35541977  0.26120902
   0.25929041  0.35542099  0.76121108
   0.25929143  0.85542213  0.26120596
   0.25929210  0.85542244  0.76120876
   0.75929300  0.35541695  0.26120908
   0.75929226  0.35542246  0.76120811
   0.75929050  0.85542295  0.26121143
   0.75929137  0.85541695  0.76120566
   0.50973249  0.10421989  0.25989278
   0.50972614  0.10421780  0.75989340
   0.50972849  0.60421906  0.25988939
   0.50972808  0.60421895  0.75989513
   0.00972593  0.10422147  0.25989146
   0.00972339  0.10421986  0.75989013
   0.00972526  0.60422112  0.25989631
   0.00972503  0.60422141  0.75989206
   0.37186953  0.38019024  0.10111639
   0.37187664  0.38019354  0.60111833
   0.37186538  0.88019449  0.10111773
   0.37187493  0.88018948  0.60112006
   0.87187029  0.38019193  0.10111994
   0.87187441  0.38018602  0.60111691
   0.87187249  0.88018527  0.10112147
   0.87187251  0.88018756  0.60111770
   0.12148019  0.12964834  0.10191406
   0.12148107  0.12965020  0.60191113
   0.12148164  0.62964986  0.10191423
   0.12147999  0.62964792  0.60191225
   0.62147524  0.12965204  0.10191505
   0.62148019  0.12964451  0.60191376
   0.62147666  0.62965362  0.10191241
   0.62148297  0.62964775  0.60191050
   0.34307674  0.13345322  0.12386786
   0.34307389  0.13345425  0.62386295
   0.34307763  0.63343504  0.12387120
   0.34307737  0.63344247  0.62387018
   0.84308265  0.13344421  0.12386194
   0.84307523  0.13343967  0.62387161
   0.84307779  0.63344571  0.12387321
   0.84308094  0.63343159  0.62386458
   0.09556330  0.38458286  0.12071737
   0.09556270  0.38458049  0.62071758
   0.09555436  0.88459192  0.12071762
   0.09555734  0.88457877  0.62071756
   0.59556389  0.38458150  0.12072154
   0.59556234  0.38455402  0.62071164
   0.59556360  0.88457131  0.12072124
   0.59556426  0.88457915  0.62071628
   0.34471606  0.36449449  0.37253347
   0.34471391  0.36449947  0.87253724
   0.34471545  0.86449429  0.37253419
   0.34470933  0.86449338  0.87253444
   0.84471699  0.36449371  0.37253430
   0.84471414  0.36449473  0.87253686
   0.84471224  0.86449354  0.37253285
   0.84471311  0.86449913  0.87253255
   0.09370159  0.11469491  0.37254172
   0.09369237  0.11468998  0.87254183
   0.09369403  0.61469436  0.37254182
   0.09369625  0.61468582  0.87253754
   0.59370042  0.11469694  0.37254549
   0.59370167  0.11469007  0.87253864
   0.59370337  0.61469576  0.37254085
   0.59369980  0.61469615  0.87254357
   0.37224077  0.11441756  0.35201582
   0.37223869  0.11441566  0.85201518
   0.37224090  0.61442289  0.35201567
   0.37223671  0.61440952  0.85201660
   0.87224433  0.11442292  0.35202570
   0.87223991  0.11442463  0.85201766
   0.87223653  0.61441238  0.35201766
   0.87223383  0.61441633  0.85203365
   0.12305820  0.36292812  0.35250406
   0.12305649  0.36291608  0.85250905
   0.12306048  0.86293036  0.35250292
   0.12306209  0.86293553  0.85250082
   0.62305891  0.36292918  0.35250965
   0.62306026  0.36293269  0.85249876
   0.62305850  0.86292298  0.35250477
   0.62305554  0.86292255  0.85250573
   0.98920978  0.98021029  0.24439617
   0.98920887  0.98021118  0.74439509
   0.98920952  0.48020896  0.24439496
   0.98921296  0.48021067  0.74439874
   0.48921136  0.98020872  0.24439507
   0.48920846  0.98020988  0.74439611
   0.48920995  0.48020495  0.24439776
   0.48921054  0.48021030  0.74439471
   0.23974475  0.23069125  0.24399355
   0.23974602  0.23069287  0.74399328
   0.23974781  0.73069169  0.24399209
   0.23974253  0.73069154  0.74399308
   0.73974973  0.23068116  0.24399500
   0.73974781  0.23069079  0.74399459
   0.73974686  0.73069255  0.24399355
   0.73974985  0.73068359  0.74399537
   0.23907966  0.01928535  0.98640827
   0.23907582  0.01928325  0.48641119
   0.23907499  0.51928474  0.98640856
   0.23907811  0.51928598  0.48640921
   0.73907617  0.01928299  0.98641003
   0.73907998  0.01928658  0.48640649
   0.73907659  0.51928622  0.98641253
   0.73907175  0.51928162  0.48641070
   0.98873208  0.26835405  0.98715551
   0.98873385  0.26835501  0.48715395
   0.98873438  0.76835467  0.98715428
   0.98873283  0.76835535  0.48715468
   0.48873363  0.26835522  0.98715448
   0.48873367  0.26835082  0.48715326
   0.48873169  0.76835608  0.98715450
   0.48873425  0.76835357  0.48715524
   0.23882942  0.98318287  0.23781265
   0.23882802  0.98318134  0.73781105
   0.23882797  0.48318016  0.23781172
   0.23882667  0.48317971  0.73781182
   0.73883065  0.98318278  0.23781103
   0.73882682  0.98317923  0.73781053
   0.73882875  0.48317971  0.23781448
   0.73883063  0.48318373  0.73781140
   0.99062256  0.23359416  0.23835110
   0.99062295  0.23359458  0.73834992
   0.99062612  0.73359449  0.23835198
   0.99061896  0.73359571  0.73835052
   0.49062340  0.23359476  0.23835204
   0.49062157  0.23359249  0.73835281
   0.49062230  0.73359806  0.23835232
   0.49062495  0.73359195  0.73835134
   0.98877336  0.01872709  0.99494952
   0.98878074  0.01872701  0.49494964
   0.98877855  0.51872819  0.99495439
   0.98877071  0.51872821  0.49495050
   0.48877978  0.01872717  0.99495103
   0.48877362  0.01872502  0.49495017
   0.48877491  0.51872869  0.99495261
   0.48877933  0.51872613  0.49495326
   0.23860464  0.26862666  0.99464258
   0.23860545  0.26862613  0.49464392
   0.23860718  0.76862750  0.99464375
   0.23860623  0.76862688  0.49464276
   0.73860585  0.26862435  0.99464350
   0.73860620  0.26862497  0.49464421
   0.73860490  0.76862653  0.99464352
   0.73860587  0.76862574  0.49464342
Direct configuration=    20
   0.13957320  0.11139443  0.15600505
   0.13958186  0.11139042  0.65599713
   0.13957234  0.61139394  0.15600516
   0.13957333  0.61139509  0.65600306
   0.63957158  0.11139632  0.15600397
   0.63957496  0.11138863  0.65600360
   0.63958273  0.61139094  0.15599588
   0.63958430  0.61139628  0.65599937
   0.38812943  0.36303812  0.15638775
   0.38814151  0.36303932  0.65638778
   0.38812814  0.86303676  0.15638669
   0.38813959  0.86303856  0.65639076
   0.88813838  0.36304174  0.15638927
   0.88813846  0.36304138  0.65638973