CHNH3PbI3 tetr                          
           1
    25.054199    0.000000    0.000000
     0.000000   25.054207    0.000000
     0.000000    0.000000   25.348000
   C    H    I    N    Pb
  64 384 192  64  64
Direct configuration=    10
   0.12591489  0.11822441  0.12816455
   0.12591489  0.11822442  0.62816454
   0.12591489  0.61822441  0.12816455
   0.12591489  0.61822441  0.62816454
   0.62591487  0.11822442  0.12816454
   0.62591487  0.11822441  0.62816454
   0.62591487  0.61822441  0.12816454
   0.62591487  0.61822441  0.62816454
   0.37590924  0.36822535  0.12815350
   0.37590924  0.36822535  0.62815349
   0.37590923  0.86822537  0.12815350
   0.37590924  0.86822537  0.62815349
   0.87590922  0.36822535  0.12815350
   0.87590922  0.36822535  0.62815349
   0.87590922  0.86822537  0.12815350
   0.87590922  0.86822536  0.62815349
   0.13213642  0.37727706  0.12805885
   0.13213643  0.37727706  0.62805885
   0.13213643  0.87727703  0.12805885
   0.13213641  0.87727703  0.62805884
   0.63213642  0.37727707  0.12805885
   0.63213642  0.37727706  0.62805884
   0.63213643  0.87727703  0.12805885
   0.63213645  0.87727704  0.62805885
   0.38213396  0.12727232  0.12806614
   0.38213397  0.12727233  0.62806614
   0.38213398  0.62727232  0.12806615
   0.38213398  0.62727232  0.62806614
   0.88213398  0.12727233  0.12806615
   0.88213398  0.12727233  0.62806614
   0.88213399  0.62727232  0.12806615
   0.88213398  0.62727232  0.62806614
   0.13208883  0.12289357  0.37812940
   0.13208882  0.12289357  0.87812940
   0.13208883  0.62289355  0.37812941
   0.13208884  0.62289355  0.87812941
   0.63208882  0.12289357  0.37812941
   0.63208882  0.12289357  0.87812941
   0.63208881  0.62289355  0.37812941
   0.63208882  0.62289355  0.87812941
   0.38209303  0.37289664  0.37812908
   0.38209301  0.37289664  0.87812906
   0.38209303  0.87289663  0.37812908
   0.38209301  0.87289662  0.87812907
   0.88209300  0.37289664  0.37812908
   0.88209301  0.37289664  0.87812908
   0.88209301  0.87289663  0.37812908
   0.88209302  0.87289663  0.87812908
   0.12595965  0.38179666  0.37814615
   0.12595965  0.38179666  0.87814617
   0.12595965  0.88179666  0.37814615
   0.12595965  0.88179666  0.87814616
   0.62595964  0.38179666  0.37814615
   0.62595963  0.38179665  0.87814616
   0.62595964  0.88179666  0.37814614
   0.62595963  0.88179664  0.87814615
   0.37596220  0.13179534  0.37815090
   0.37596220  0.13179532  0.87815091
   0.37596220  0.63179534  0.37815090
   0.37596220  0.63179533  0.87815091
   0.87596218  0.13179535  0.37815091
   0.87596218  0.13179533  0.87815091
   0.87596218  0.63179535  0.37815090
   0.87596218  0.63179533  0.87815092
   0.40417515  0.09179706  0.11525423
   0.40417514  0.09179706  0.61525423
   0.40417516  0.59179706  0.11525423
   0.40417519  0.59179706  0.61525424
   0.90417515  0.09179707  0.11525423
   0.90417517  0.09179706  0.61525424
   0.90417517  0.59179708  0.11525424
   0.90417519  0.59179706  0.61525424
   0.15418343  0.34180439  0.11524961
   0.15418338  0.34180443  0.61524965
   0.15418340  0.84180440  0.11524964
   0.15418336  0.84180441  0.61524963
   0.65418339  0.34180442  0.11524962
   0.65418334  0.34180442  0.61524959
   0.65418336  0.84180440  0.11524963
   0.65418341  0.84180441  0.61524965
   0.12705953  0.37719124  0.17091118
   0.12705945  0.37719124  0.67091115
   0.12705951  0.87719122  0.17091117
   0.12705946  0.87719120  0.67091115
   0.62705948  0.37719124  0.17091115
   0.62705950  0.37719121  0.67091117
   0.62705949  0.87719120  0.17091116
   0.62705950  0.87719119  0.67091116
   0.37705707  0.12719118  0.17091831
   0.37705702  0.12719116  0.67091828
   0.37705707  0.62719116  0.17091827
   0.37705704  0.62719116  0.67091831
   0.87705704  0.12719117  0.17091828
   0.87705703  0.12719115  0.67091830
   0.87705706  0.62719116  0.17091826
   0.87705702  0.62719115  0.67091829
   0.15303764  0.41344003  0.11527253
   0.15303755  0.41343996  0.61527256
   0.15303759  0.91343999  0.11527255
   0.15303753  0.91343996  0.61527254
   0.65303757  0.41343996  0.11527255
   0.65303759  0.41343994  0.61527253
   0.65303756  0.91343993  0.11527256
   0.65303761  0.91343991  0.61527259
   0.40303382  0.16343420  0.11527522
   0.40303379  0.16343414  0.61527523
   0.40303379  0.66343413  0.11527521
   0.40303380  0.66343417  0.61527522
   0.90303382  0.16343414  0.11527523
   0.90303384  0.16343413  0.61527525
   0.90303380  0.66343412  0.11527522
   0.90303381  0.66343412  0.61527523
   0.30666725  0.09267104  0.11338142
   0.30666721  0.09267100  0.61338138
   0.30666729  0.59267106  0.11338142
   0.30666724  0.59267096  0.61338141
   0.80666725  0.09267103  0.11338143
   0.80666724  0.09267102  0.61338137
   0.80666727  0.59267102  0.11338142
   0.80666727  0.59267097  0.61338138
   0.05666957  0.34267457  0.11338152
   0.05666954  0.34267453  0.61338146
   0.05666957  0.84267453  0.11338151
   0.05666953  0.84267444  0.61338151
   0.55666955  0.34267455  0.11338152
   0.55666948  0.34267440  0.61338153
   0.55666956  0.84267456  0.11338148
   0.55666956  0.84267453  0.61338145
   0.33133982  0.12728168  0.06225850
   0.33133980  0.12728169  0.56225846
   0.33133982  0.62728166  0.06225849
   0.33133981  0.62728163  0.56225847
   0.83133986  0.12728168  0.06225847
   0.83133985  0.12728167  0.56225850
   0.83133984  0.62728164  0.06225848
   0.83133986  0.62728164  0.56225844
   0.08134039  0.37728507  0.06225716
   0.08134039  0.37728506  0.56225713
   0.08134039  0.87728504  0.06225712
   0.08134037  0.87728506  0.56225708
   0.58134040  0.37728506  0.06225713
   0.58134040  0.37728509  0.56225699
   0.58134039  0.87728502  0.06225716
   0.58134040  0.87728502  0.56225713
   0.30581627  0.15976431  0.11401657
   0.30581623  0.15976435  0.61401652
   0.30581624  0.65976433  0.11401658
   0.30581621  0.65976434  0.61401654
   0.80581628  0.15976434  0.11401656
   0.80581626  0.15976434  0.61401650
   0.80581624  0.65976433  0.11401656
   0.80581625  0.65976434  0.61401651
   0.05581654  0.40976802  0.11401946
   0.05581651  0.40976805  0.61401940
   0.05581652  0.90976805  0.11401949
   0.05581647  0.90976811  0.61401948
   0.55581653  0.40976803  0.11401945
   0.55581646  0.40976822  0.61401952
   0.55581652  0.90976800  0.11401947
   0.55581651  0.90976806  0.61401943
   0.37251659  0.41831344  0.06198519
   0.37251659  0.41831346  0.56198521
   0.37251659  0.91831349  0.06198518
   0.37251659  0.91831350  0.56198518
   0.87251659  0.41831344  0.06198520
   0.87251659  0.41831346  0.56198519
   0.87251660  0.91831348  0.06198519
   0.87251659  0.91831351  0.56198520
   0.12251272  0.16831374  0.06198617
   0.12251271  0.16831375  0.56198619
   0.12251272  0.66831374  0.06198613
   0.12251272  0.66831376  0.56198618
   0.62251270  0.16831372  0.06198607
   0.62251272  0.16831377  0.56198620
   0.62251272  0.66831373  0.06198615
   0.62251272  0.66831375  0.56198618
   0.40825457  0.44422442  0.11169758
   0.40825457  0.44422443  0.61169760
   0.40825456  0.94422444  0.11169757
   0.40825456  0.94422444  0.61169760
   0.90825457  0.44422441  0.11169759
   0.90825460  0.44422441  0.61169762
   0.90825456  0.94422442  0.11169758
   0.90825456  0.94422443  0.61169760
   0.15824371  0.19422509  0.11169733
   0.15824369  0.19422507  0.61169736
   0.15824372  0.69422509  0.11169732
   0.15824368  0.69422506  0.61169734
   0.65824378  0.19422509  0.11169739
   0.65824369  0.19422505  0.61169736
   0.65824370  0.69422506  0.11169734
   0.65824369  0.69422504  0.61169735
   0.34113434  0.44374076  0.11449805
   0.34113434  0.44374076  0.61449807
   0.34113435  0.94374078  0.11449805
   0.34113435  0.94374077  0.61449808
   0.84113434  0.44374077  0.11449805
   0.84113433  0.44374078  0.61449807
   0.84113437  0.94374078  0.11449803
   0.84113437  0.94374078  0.61449805
   0.09112729  0.19374447  0.11449932
   0.09112729  0.19374444  0.61449935
   0.09112728  0.69374447  0.11449931
   0.09112729  0.69374445  0.61449934
   0.59112721  0.19374451  0.11449935
   0.59112728  0.19374448  0.61449935
   0.59112729  0.69374446  0.11449932
   0.59112731  0.69374445  0.61449933
   0.16102878  0.09670126  0.11364771
   0.16102880  0.09670121  0.61364769
   0.16102878  0.59670127  0.11364770
   0.16102879  0.59670125  0.61364769
   0.66102874  0.09670127  0.11364768
   0.66102876  0.09670123  0.61364768
   0.66102876  0.59670125  0.11364769
   0.66102875  0.59670124  0.61364768
   0.41101919  0.34669044  0.11364457
   0.41101919  0.34669046  0.61364454
   0.41101920  0.84669047  0.11364455
   0.41101920  0.84669048  0.61364453
   0.91101918  0.34669043  0.11364457
   0.91101915  0.34669043  0.61364454
   0.91101920  0.84669042  0.11364455
   0.91101920  0.84669045  0.61364452
   0.33951105  0.34655519  0.11744076
   0.33951106  0.34655521  0.61744074
   0.33951105  0.84655523  0.11744075
   0.33951105  0.84655524  0.61744073
   0.83951104  0.34655522  0.11744077
   0.83951102  0.34655524  0.61744074
   0.83951102  0.84655521  0.11744077
   0.83951105  0.84655526  0.61744076
   0.08951963  0.09655383  0.11744359
   0.08951959  0.09655376  0.61744356
   0.08951963  0.59655384  0.11744359
   0.08951964  0.59655383  0.61744359
   0.58951960  0.09655390  0.11744358
   0.58951959  0.09655386  0.61744359
   0.58951961  0.59655387  0.11744360
   0.58951961  0.59655387  0.61744360
   0.12816440  0.12347957  0.17093541
   0.12816441  0.12347948  0.67093546
   0.12816440  0.62347956  0.17093540
   0.12816442  0.62347951  0.67093541
   0.62816436  0.12347956  0.17093539
   0.62816437  0.12347953  0.67093543
   0.62816437  0.62347955  0.17093541
   0.62816438  0.62347953  0.67093541
   0.37815645  0.37347933  0.17092485
   0.37815646  0.37347931  0.67092484
   0.37815645  0.87347934  0.17092484
   0.37815646  0.87347932  0.67092485
   0.87815642  0.37347932  0.17092486
   0.87815642  0.37347929  0.67092485
   0.87815642  0.87347931  0.17092488
   0.87815644  0.87347930  0.67092485
   0.30577278  0.34033323  0.36428002
   0.30577276  0.34033322  0.86427994
   0.30577272  0.84033327  0.36428000
   0.30577269  0.84033325  0.86427997
   0.80577277  0.34033325  0.36427998
   0.80577278  0.34033325  0.86427993
   0.80577273  0.84033327  0.36427999
   0.80577271  0.84033324  0.86427996
   0.05577157  0.09032932  0.36427948
   0.05577156  0.09032932  0.86427946
   0.05577154  0.59032938  0.36427948
   0.05577144  0.59032926  0.86427946
   0.55577157  0.09032938  0.36427945
   0.55577153  0.09032930  0.86427944
   0.55577153  0.59032936  0.36427947
   0.55577153  0.59032935  0.86427942
   0.33138528  0.37231452  0.31227549
   0.33138526  0.37231454  0.81227547
   0.33138528  0.87231458  0.31227551
   0.33138528  0.87231458  0.81227549
   0.83138527  0.37231453  0.31227551
   0.83138528  0.37231454  0.81227548
   0.83138529  0.87231457  0.31227549
   0.83138527  0.87231458  0.81227547
   0.08139087  0.12231607  0.31227673
   0.08139085  0.12231610  0.81227676
   0.08139085  0.62231608  0.31227679
   0.08139084  0.62231609  0.81227659
   0.58139085  0.12231608  0.31227679
   0.58139088  0.12231609  0.81227666
   0.58139089  0.62231610  0.31227674
   0.58139084  0.62231612  0.81227675
   0.30667520  0.40742010  0.36306300
   0.30667518  0.40742010  0.86306293
   0.30667525  0.90742005  0.36306297
   0.30667522  0.90742008  0.86306293
   0.80667521  0.40742003  0.36306297
   0.80667519  0.40742005  0.86306291
   0.80667524  0.90742006  0.36306297
   0.80667520  0.90742008  0.86306294
   0.05667618  0.15741636  0.36306388
   0.05667617  0.15741639  0.86306386
   0.05667619  0.65741637  0.36306388
   0.05667613  0.65741647  0.86306383
   0.55667618  0.15741633  0.36306386
   0.55667615  0.15741641  0.86306381
   0.55667620  0.65741641  0.36306388
   0.55667615  0.65741640  0.86306383
   0.15294025  0.08654340  0.36579201
   0.15294024  0.08654342  0.86579200
   0.15294021  0.58654339  0.36579200
   0.15294025  0.58654343  0.86579204
   0.65294025  0.08654339  0.36579201
   0.65294024  0.08654342  0.86579204
   0.65294019  0.58654337  0.36579200
   0.65294018  0.58654340  0.86579202
   0.40294132  0.33654415  0.36579360
   0.40294135  0.33654410  0.86579356
   0.40294131  0.83654414  0.36579361
   0.40294127  0.83654411  0.86579360
   0.90294131  0.33654413  0.36579360
   0.90294129  0.33654414  0.86579361
   0.90294129  0.83654410  0.36579360
   0.90294124  0.83654410  0.86579360
   0.12696655  0.12347454  0.42097316
   0.12696653  0.12347456  0.92097316
   0.12696656  0.62347450  0.42097316
   0.12696649  0.62347454  0.92097317
   0.62696656  0.12347455  0.42097317
   0.62696646  0.12347458  0.92097316
   0.62696655  0.62347450  0.42097316
   0.62696650  0.62347452  0.92097315
   0.37696627  0.37347587  0.42097241
   0.37696624  0.37347587  0.92097244
   0.37696627  0.87347583  0.42097243
   0.37696619  0.87347584  0.92097245
   0.87696620  0.37347587  0.42097241
   0.87696617  0.37347589  0.92097241
   0.87696624  0.87347584  0.42097243
   0.87696618  0.87347584  0.92097242
   0.40422440  0.40817718  0.36494829
   0.40422447  0.40817719  0.86494827
   0.40422448  0.90817720  0.36494831
   0.40422445  0.90817720  0.86494830
   0.90422438  0.40817721  0.36494829
   0.90422439  0.40817720  0.86494830
   0.90422446  0.90817721  0.36494830
   0.90422448  0.90817715  0.86494834
   0.15422380  0.15817170  0.36494755
   0.15422377  0.15817168  0.86494753
   0.15422380  0.65817168  0.36494755
   0.15422378  0.65817169  0.86494754
   0.65422375  0.15817172  0.36494756
   0.65422373  0.15817172  0.86494756
   0.65422381  0.65817171  0.36494755
   0.65422377  0.65817169  0.86494755
   0.40824200  0.05577614  0.36168633
   0.40824207  0.05577611  0.86168631
   0.40824203  0.55577615  0.36168636
   0.40824205  0.55577615  0.86168630
   0.90824205  0.05577610  0.36168637
   0.90824203  0.05577615  0.86168631
   0.90824204  0.55577616  0.36168635
   0.90824210  0.55577612  0.86168633
   0.15822921  0.30577274  0.36168874
   0.15822921  0.30577273  0.86168868
   0.15822925  0.80577274  0.36168875
   0.15822922  0.80577276  0.86168871
   0.65822926  0.30577271  0.36168873
   0.65822921  0.30577277  0.86168871
   0.65822920  0.80577278  0.36168875
   0.65822923  0.80577278  0.86168873
   0.37249182  0.08170618  0.31199526
   0.37249179  0.08170622  0.81199521
   0.37249180  0.58170620  0.31199523
   0.37249180  0.58170622  0.81199530
   0.87249178  0.08170616  0.31199523
   0.87249181  0.08170621  0.81199532
   0.87249181  0.58170621  0.31199526
   0.87249177  0.58170620  0.81199525
   0.12249198  0.33170039  0.31199338
   0.12249198  0.33170038  0.81199345
   0.12249200  0.83170038  0.31199335
   0.12249197  0.83170039  0.81199344
   0.62249198  0.33170038  0.31199327
   0.62249197  0.33170039  0.81199345
   0.62249199  0.83170038  0.31199341
   0.62249198  0.83170041  0.81199345
   0.34112261  0.05629656  0.36452334
   0.34112253  0.05629651  0.86452332
   0.34112254  0.55629657  0.36452337
   0.34112254  0.55629655  0.86452331
   0.84112251  0.05629648  0.36452340
   0.84112262  0.05629654  0.86452330
   0.84112259  0.55629657  0.36452334
   0.84112250  0.55629648  0.86452334
   0.09111285  0.30629576  0.36451844
   0.09111283  0.30629572  0.86451838
   0.09111283  0.80629576  0.36451844
   0.09111282  0.80629575  0.86451840
   0.59111279  0.30629570  0.36451842
   0.59111283  0.30629572  0.86451839
   0.59111285  0.80629577  0.36451843
   0.59111282  0.80629575  0.86451841
   0.16108861  0.40329410  0.36362845
   0.16108861  0.40329413  0.86362847
   0.16108858  0.90329411  0.36362844
   0.16108860  0.90329416  0.86362849
   0.66108861  0.40329413  0.36362841
   0.66108861  0.40329416  0.86362845
   0.66108858  0.90329417  0.36362841
   0.66108858  0.90329417  0.86362846
   0.41108402  0.15330122  0.36362876
   0.41108402  0.15330122  0.86362879
   0.41108402  0.65330122  0.36362877
   0.41108402  0.65330123  0.86362880
   0.91108400  0.15330127  0.36362875
   0.91108400  0.15330127  0.86362877
   0.91108398  0.65330126  0.36362875
   0.91108398  0.65330125  0.86362877
   0.12821815  0.37654069  0.42091645
   0.12821817  0.37654070  0.92091642
   0.12821815  0.87654073  0.42091644
   0.12821817  0.87654072  0.92091642
   0.62821812  0.37654071  0.42091647
   0.62821812  0.37654068  0.92091643
   0.62821811  0.87654075  0.42091647
   0.62821812  0.87654069  0.92091643
   0.37822071  0.12654039  0.42092118
   0.37822072  0.12654036  0.92092113
   0.37822072  0.62654041  0.42092119
   0.37822072  0.62654035  0.92092114
   0.87822067  0.12654041  0.42092119
   0.87822067  0.12654036  0.92092116
   0.87822066  0.62654042  0.42092120
   0.87822067  0.62654035  0.92092112
   0.33957401  0.15349353  0.36746094
   0.33957402  0.15349352  0.86746097
   0.33957403  0.65349355  0.36746095
   0.33957400  0.65349353  0.86746098
   0.83957400  0.15349351  0.36746098
   0.83957398  0.15349351  0.86746100
   0.83957400  0.65349352  0.36746097
   0.83957400  0.65349348  0.86746099
   0.08957312  0.40349654  0.36745529
   0.08957312  0.40349657  0.86745533
   0.08957315  0.90349655  0.36745528
   0.08957315  0.90349659  0.86745534
   0.58957309  0.40349654  0.36745530
   0.58957309  0.40349654  0.86745535
   0.58957311  0.90349655  0.36745529
   0.58957311  0.90349653  0.86745534
   0.99999279  0.99998936  0.12499891
   0.99999279  0.99998936  0.62499891
   0.99999279  0.49998936  0.12499891
   0.99999279  0.49998936  0.62499891
   0.49999279  0.99998936  0.12499891
   0.49999279  0.99998936  0.62499891
   0.49999279  0.49998936  0.12499891
   0.49999279  0.49998936  0.62499891
   0.24999275  0.24998936  0.12499767
   0.24999275  0.24998936  0.62499767
   0.24999275  0.74998936  0.12499767
   0.24999275  0.74998936  0.62499767
   0.74999275  0.24998936  0.12499767
   0.74999275  0.24998936  0.62499767
   0.74999275  0.74998936  0.12499767
   0.74999275  0.74998936  0.62499767
   0.99999273  0.00001063  0.37499766
   0.99999273  0.00001063  0.87499767
   0.99999273  0.50001063  0.37499767
   0.99999273  0.50001063  0.87499766
   0.49999273  0.00001063  0.37499767
   0.49999273  0.00001063  0.87499766
   0.49999273  0.50001063  0.37499767
   0.49999273  0.50001063  0.87499766
   0.24999268  0.25001065  0.37499893
   0.24999268  0.25001065  0.87499893
   0.24999268  0.75001065  0.37499893
   0.24999268  0.75001065  0.87499893
   0.74999268  0.25001065  0.37499893
   0.74999268  0.25001065  0.87499893
   0.74999268  0.75001065  0.37499893
   0.74999268  0.75001065  0.87499893
   0.25001536  0.99999528  0.37499805
   0.25001536  0.99999528  0.87499805
   0.25001536  0.49999528  0.37499805
   0.25001536  0.49999528  0.87499805
   0.75001536  0.99999528  0.37499805
   0.75001536  0.99999528  0.87499805
   0.75001536  0.49999528  0.37499805
   0.75001536  0.49999528  0.87499805
   0.00001535  0.24999529  0.37499804
   0.00001535  0.24999529  0.87499804
   0.00001535  0.74999529  0.37499804
   0.00001535  0.74999529  0.87499804
   0.50001535  0.24999529  0.37499804
   0.50001535  0.24999529  0.87499804
   0.50001535  0.74999529  0.37499804
   0.50001535  0.74999529  0.87499804
   0.25001534  0.00000475  0.12499848
   0.25001534  0.00000475  0.62499848
   0.25001534  0.50000475  0.12499848
   0.25001534  0.50000475  0.62499848
   0.75001534  0.00000475  0.12499848
   0.75001534  0.00000475  0.62499848
   0.75001534  0.50000475  0.12499848
   0.75001534  0.50000475  0.62499848
   0.00001533  0.25000474  0.12499847
   0.00001533  0.25000474  0.62499847
   0.00001533  0.75000474  0.12499847
   0.00001533  0.75000474  0.62499847
   0.50001533  0.25000474  0.12499847
   0.50001533  0.25000474  0.62499847
   0.50001533  0.75000474  0.12499847
   0.50001533  0.75000474  0.62499847
   0.21801435  0.12500786  0.00001171
   0.21801435  0.12500786  0.50001171
   0.21801435  0.62500786  0.00001171
   0.21801435  0.62500786  0.50001171
   0.71801435  0.12500786  0.00001171
   0.71801435  0.12500786  0.50001171
   0.71801435  0.62500786  0.00001171
   0.71801435  0.62500786  0.50001171
   0.46801346  0.37500711  0.00001166
   0.46801346  0.37500711  0.50001166
   0.46801346  0.87500711  0.00001166
   0.46801346  0.87500711  0.50001166
   0.96801346  0.37500711  0.00001166
   0.96801346  0.37500711  0.50001166
   0.96801346  0.87500711  0.00001166
   0.96801346  0.87500711  0.50001166
   0.28199778  0.37500544  0.99999579
   0.28199778  0.37500544  0.49999579
   0.28199778  0.87500544  0.99999579
   0.28199778  0.87500544  0.49999579
   0.78199778  0.37500544  0.99999579
   0.78199778  0.37500544  0.49999579
   0.78199778  0.87500544  0.99999579
   0.78199778  0.87500544  0.49999579
   0.03199872  0.12500620  0.99999580
   0.03199872  0.12500620  0.49999580
   0.03199872  0.62500620  0.99999580
   0.03199872  0.62500620  0.49999580
   0.53199872  0.12500620  0.99999580
   0.53199872  0.12500620  0.49999580
   0.53199872  0.62500620  0.99999580
   0.53199872  0.62500620  0.49999580
   0.12499290  0.46801014  0.00000614
   0.12499290  0.46801014  0.50000614
   0.12499290  0.96801014  0.00000614
   0.12499290  0.96801014  0.50000614
   0.62499290  0.46801014  0.00000614
   0.62499290  0.46801014  0.50000614
   0.62499290  0.96801014  0.00000614
   0.62499290  0.96801014  0.50000614
   0.37499213  0.21801101  0.00000615
   0.37499213  0.21801101  0.50000615
   0.37499213  0.71801101  0.00000615
   0.37499213  0.71801101  0.50000615
   0.87499213  0.21801101  0.00000615
   0.87499213  0.21801101  0.50000615
   0.87499213  0.71801101  0.00000615
   0.87499213  0.71801101  0.50000615
   0.37499527  0.03199636  0.00000168
   0.37499527  0.03199636  0.50000168
   0.37499527  0.53199636  0.00000168
   0.37499527  0.53199636  0.50000168
   0.87499527  0.03199636  0.00000168
   0.87499527  0.03199636  0.50000168
   0.87499527  0.53199636  0.00000168
   0.87499527  0.53199636  0.50000168
   0.12499603  0.28199538  0.00000171
   0.12499603  0.28199538  0.50000171
   0.12499603  0.78199538  0.00000171
   0.12499603  0.78199538  0.50000171
   0.62499603  0.28199538  0.00000170
   0.62499603  0.28199538  0.50000171
   0.62499603  0.78199538  0.00000171
   0.62499603  0.78199538  0.50000170
   0.12499383  0.03199155  0.25000630
   0.12499383  0.03199155  0.75000630
   0.12499383  0.53199155  0.25000630
   0.12499383  0.53199155  0.75000630
   0.62499383  0.03199155  0.25000630
   0.62499383  0.03199155  0.75000630
   0.62499383  0.53199155  0.25000630
   0.62499383  0.53199155  0.75000630
   0.37499471  0.28199072  0.25000626
   0.37499471  0.28199072  0.75000626
   0.37499471  0.78199072  0.25000626
   0.37499471  0.78199072  0.75000626
   0.87499471  0.28199072  0.25000626
   0.87499471  0.28199072  0.75000626
   0.87499471  0.78199072  0.25000626
   0.87499471  0.78199072  0.75000626
   0.37499430  0.46800235  0.25000170
   0.37499430  0.46800235  0.75000170
   0.37499430  0.96800235  0.25000170
   0.37499430  0.96800235  0.75000170
   0.87499430  0.46800235  0.25000170
   0.87499430  0.46800235  0.75000170
   0.87499430  0.96800235  0.25000170
   0.87499430  0.96800235  0.75000170
   0.12499344  0.21800316  0.25000169
   0.12499344  0.21800316  0.75000169
   0.12499344  0.71800316  0.25000169
   0.12499344  0.71800316  0.75000169
   0.62499344  0.21800316  0.25000169
   0.62499344  0.21800316  0.75000169
   0.62499344  0.71800316  0.25000169
   0.62499344  0.71800316  0.75000169
   0.28199942  0.12499195  0.24999570
   0.28199942  0.12499195  0.74999570
   0.28199942  0.62499195  0.24999570
   0.28199942  0.62499195  0.74999570
   0.78199942  0.12499195  0.24999570
   0.78199942  0.12499195  0.74999570
   0.78199942  0.62499195  0.24999570
   0.78199942  0.62499195  0.74999570
   0.03200024  0.37499282  0.24999571
   0.03200024  0.37499282  0.74999571
   0.03200024  0.87499282  0.24999571
   0.03200024  0.87499282  0.74999571
   0.53200024  0.37499282  0.24999571
   0.53200024  0.37499282  0.74999571
   0.53200024  0.87499282  0.24999571
   0.53200024  0.87499282  0.74999571
   0.21801280  0.37499474  0.25001165
   0.21801280  0.37499474  0.75001165
   0.21801280  0.87499474  0.25001165
   0.21801280  0.87499474  0.75001165
   0.71801280  0.37499474  0.25001165
   0.71801280  0.37499474  0.75001165
   0.71801280  0.87499474  0.25001165
   0.71801280  0.87499474  0.75001165
   0.46801198  0.12499386  0.25001169
   0.46801197  0.12499386  0.75001169
   0.46801197  0.62499386  0.25001169
   0.46801197  0.62499386  0.75001169
   0.96801197  0.12499386  0.25001169
   0.96801197  0.12499386  0.75001169
   0.96801198  0.62499386  0.25001169
   0.96801197  0.62499386  0.75001169
   0.37441768  0.42186449  0.10270165
   0.37441768  0.42186449  0.60270165
   0.37441768  0.92186449  0.10270165
   0.37441768  0.92186449  0.60270166
   0.87441768  0.42186448  0.10270165
   0.87441768  0.42186448  0.60270165
   0.87441768  0.92186448  0.10270165
   0.87441768  0.92186450  0.60270165
   0.12440764  0.17186347  0.10270304
   0.12440764  0.17186347  0.60270304
   0.12440765  0.67186347  0.10270304
   0.12440764  0.67186347  0.60270304
   0.62440764  0.17186344  0.10270306
   0.62440764  0.17186348  0.60270305
   0.62440764  0.67186346  0.10270304
   0.62440764  0.67186347  0.60270304
   0.32828182  0.12656631  0.10305095
   0.32828182  0.12656631  0.60305094
   0.32828182  0.62656630  0.10305095
   0.32828183  0.62656629  0.60305095
   0.82828183  0.12656632  0.10305095
   0.82828182  0.12656631  0.60305093
   0.82828183  0.62656629  0.10305095
   0.82828184  0.62656629  0.60305094
   0.07828128  0.37657099  0.10304941
   0.07828128  0.37657099  0.60304939
   0.07828129  0.87657097  0.10304942
   0.07828132  0.87657096  0.60304942
   0.57828128  0.37657099  0.10304941
   0.57828134  0.37657099  0.60304944
   0.57828127  0.87657096  0.10304941
   0.57828129  0.87657097  0.60304940
   0.32827696  0.37341540  0.35305647
   0.32827695  0.37341540  0.85305644
   0.32827695  0.87341541  0.35305645
   0.32827695  0.87341540  0.85305644
   0.82827694  0.37341539  0.35305645
   0.82827694  0.37341540  0.85305643
   0.82827695  0.87341541  0.35305645
   0.82827694  0.87341541  0.85305643
   0.07827689  0.12341118  0.35305740
   0.07827689  0.12341118  0.85305739
   0.07827687  0.62341117  0.35305740
   0.07827689  0.62341118  0.85305739
   0.57827686  0.12341118  0.35305738
   0.57827689  0.12341118  0.85305738
   0.57827688  0.62341117  0.35305740
   0.57827687  0.62341117  0.85305738
   0.37441169  0.07815524  0.35271082
   0.37441169  0.07815527  0.85271082
   0.37441169  0.57815525  0.35271083
   0.37441169  0.57815525  0.85271081
   0.87441168  0.07815525  0.35271083
   0.87441169  0.07815526  0.85271082
   0.87441168  0.57815525  0.35271082
   0.87441168  0.57815526  0.85271082
   0.12440253  0.32815610  0.35270997
   0.12440253  0.32815608  0.85270995
   0.12440253  0.82815611  0.35270997
   0.12440253  0.82815611  0.85270996
   0.62440253  0.32815610  0.35270997
   0.62440253  0.32815610  0.85270995
   0.62440253  0.82815610  0.35270997
   0.62440253  0.82815612  0.85270996
   0.00001442  0.99999678  0.24999673
   0.00001442  0.99999678  0.74999673
   0.00001442  0.49999678  0.24999673
   0.00001442  0.49999678  0.74999673
   0.50001442  0.99999678  0.24999673
   0.50001442  0.99999678  0.74999673
   0.50001442  0.49999678  0.24999673
   0.50001442  0.49999678  0.74999673
   0.25001443  0.24999679  0.24999672
   0.25001443  0.24999679  0.74999672
   0.25001443  0.74999679  0.24999672
   0.25001443  0.74999679  0.74999672
   0.75001443  0.24999679  0.24999672
   0.75001443  0.24999679  0.74999672
   0.75001443  0.74999679  0.24999672
   0.75001443  0.74999679  0.74999672
   0.24998525  0.99999229  0.99999694
   0.24998525  0.99999229  0.49999694
   0.24998525  0.49999229  0.99999694
   0.24998525  0.49999228  0.49999694
   0.74998525  0.99999229  0.99999694
   0.74998525  0.99999229  0.49999694
   0.74998525  0.49999229  0.99999694
   0.74998525  0.49999229  0.49999694
   0.99998524  0.24999229  0.99999694
   0.99998524  0.24999229  0.49999694
   0.99998524  0.74999229  0.99999694
   0.99998524  0.74999229  0.49999694
   0.49998524  0.24999229  0.99999694
   0.49998524  0.24999229  0.49999694
   0.49998524  0.74999229  0.99999694
   0.49998524  0.74999229  0.49999694
   0.24998536  0.00000770  0.24999693
   0.24998536  0.00000770  0.74999693
   0.24998536  0.50000770  0.24999693
   0.24998536  0.50000770  0.74999693
   0.74998536  0.00000770  0.24999693
   0.74998536  0.00000770  0.74999693
   0.74998536  0.50000770  0.24999693
   0.74998536  0.50000770  0.74999693
   0.99998536  0.25000770  0.24999693
   0.99998536  0.25000770  0.74999693
   0.99998536  0.75000770  0.24999693
   0.99998536  0.75000770  0.74999693
   0.49998536  0.25000770  0.24999693
   0.49998536  0.25000770  0.74999693
   0.49998536  0.75000770  0.24999693
   0.49998536  0.75000770  0.74999693
   0.00001454  0.00000322  0.99999667
   0.00001454  0.00000322  0.49999667
   0.00001454  0.50000322  0.99999667
   0.00001454  0.50000322  0.49999667
   0.50001454  0.00000322  0.99999667
   0.50001454  0.00000322  0.49999667
   0.50001454  0.50000322  0.99999667
   0.50001454  0.50000322  0.49999667
   0.25001449  0.25000321  0.99999671
   0.25001449  0.25000321  0.49999671
   0.25001449  0.75000321  0.99999671
   0.25001449  0.75000321  0.49999671
   0.75001449  0.25000321  0.99999671
   0.75001449  0.25000321  0.49999671
   0.75001449  0.75000321  0.99999671
   0.75001449  0.75000321  0.49999671
Direct configuration=    20
   0.12573464  0.11847400  0.12831558
   0.12573467  0.11847388  0.62831558
   0.12573464  0.61847410  0.12831555
   0.12573465  0.61847403  0.62831559
   0.62573461  0.11847395  0.12831557
   0.62573463  0.11847396  0.62831561
   0.62573466  0.61847405  0.12831554
   0.62573465  0.61847403  0.62831559
   0.37566442  0.36846620  0.12819201
   0.37566442  0.36846618  0.62819201
   0.37566442  0.86846630  0.12819197
   0.37566442  0.86846625  0.62819199
   0.87566448  0.36846617  0.12819200
   0.87566441  0.36846614  0.62819201